<UPF version="2.0.1">
  <PP_INFO>

 This pseudopotential file has been produced using the code
 ONCVPSP  (Optimized Norm-Conservinng Vanderbilt PSeudopotential)
 scalar-relativistic version 2.1.1, 03/26/2014 by D. R. Hamann
 The code is available through a link at URL www.mat-simresearch.com.
 Documentation with the package provides a full discription of the
 input data below.


 While it is not required under the terms of the GNU GPL, it is
 suggested that you cite D. R. Hamann, Phys. Rev. B 88, 085117 (2013)
 in any publication using these pseudopotentials.


 Copyright 2015 The Regents of the University of California
 
 This work is licensed under the Creative Commons Attribution-ShareAlike 
 4.0 International License. To view a copy of this license, visit 
 http://creativecommons.org/licenses/by-sa/4.0/ or send a letter to 
 Creative Commons, PO Box 1866, Mountain View, CA 94042, USA.
 
 This pseudopotential is part of the Schlipf-Gygi norm-conserving 
 pseudopotential library. Its construction parameters were tuned to 
 reproduce materials of a training set with very high accuracy and 
 should be suitable as a general purpose pseudopotential to treat a 
 variety of different compounds. For details of the construction and 
 testing of the pseudopotential please refer to:
 
 [insert reference to paper here]
 
 We kindly ask that you include this reference in all publications 
 associated to this pseudopotential.


    <PP_INPUTFILE>
# ATOM AND REFERENCE CONFIGURATION
# atsym  z    nc    nv    iexc   psfile
  Ar 18.00     3     2     4      upf
#
#   n    l    f        energy (Ha)
    1    0    2.00
    2    0    2.00
    2    1    6.00
    3    0    2.00
    3    1    6.00
#
# PSEUDOPOTENTIAL AND OPTIMIZATION
# lmax
    1
#
#   l,   rc,     ep,   ncon, nbas, qcut
    0   2.67516  -0.89253    5    8   7.97831
    1   1.78325  -0.37741    5    8   7.45116
#
# LOCAL POTENTIAL
# lloc, lpopt,  rc(5),   dvloc0
    4    5   1.40476      0.00000
#
# VANDERBILT-KLEINMAN-BYLANDER PROJECTORs
# l, nproj, debl
    0    2   0.88095
    1    2   3.20739
#
# MODEL CORE CHARGE
# icmod, fcfact
    0   0.00000
#
# LOG DERIVATIVE ANALYSIS
# epsh1, epsh2, depsh
   -5.00    3.00    0.02
#
# OUTPUT GRID
# rlmax, drl
    6.00    0.01
#
# TEST CONFIGURATIONS
# ncnf
    0
# nvcnf
#   n    l    f
    </PP_INPUTFILE>
  </PP_INFO>
  <!--                               -->
  <!-- END OF HUMAN READABLE SECTION -->
  <!--                               -->
    <PP_HEADER
       generated="Generated using ONCVPSP code by D. R. Hamann"
       author="Martin Schlipf and Francois Gygi"
       date="150415"
       comment=""
       element="Ar"
       pseudo_type="NC"
       relativistic="scalar"
       is_ultrasoft="F"
       is_paw="F"
       is_coulomb="F"
       has_so="F"
       has_wfc="F"
       has_gipaw="F"
       core_correction="F"
       functional="PBE"
       z_valence="    8.00"
       total_psenergy="  -2.11944653006E+01"
       rho_cutoff="   6.01000000000E+00"
       l_max="1"
       l_local="-1"
       mesh_size="   602"
       number_of_wfc="0"
       number_of_proj="4"/>
 <PP_MESH>
   <PP_R type="real"  size=" 602" columns="8">
    0.0000    0.0100    0.0200    0.0300    0.0400    0.0500    0.0600    0.0700
    0.0800    0.0900    0.1000    0.1100    0.1200    0.1300    0.1400    0.1500
    0.1600    0.1700    0.1800    0.1900    0.2000    0.2100    0.2200    0.2300
    0.2400    0.2500    0.2600    0.2700    0.2800    0.2900    0.3000    0.3100
    0.3200    0.3300    0.3400    0.3500    0.3600    0.3700    0.3800    0.3900
    0.4000    0.4100    0.4200    0.4300    0.4400    0.4500    0.4600    0.4700
    0.4800    0.4900    0.5000    0.5100    0.5200    0.5300    0.5400    0.5500
    0.5600    0.5700    0.5800    0.5900    0.6000    0.6100    0.6200    0.6300
    0.6400    0.6500    0.6600    0.6700    0.6800    0.6900    0.7000    0.7100
    0.7200    0.7300    0.7400    0.7500    0.7600    0.7700    0.7800    0.7900
    0.8000    0.8100    0.8200    0.8300    0.8400    0.8500    0.8600    0.8700
    0.8800    0.8900    0.9000    0.9100    0.9200    0.9300    0.9400    0.9500
    0.9600    0.9700    0.9800    0.9900    1.0000    1.0100    1.0200    1.0300
    1.0400    1.0500    1.0600    1.0700    1.0800    1.0900    1.1000    1.1100
    1.1200    1.1300    1.1400    1.1500    1.1600    1.1700    1.1800    1.1900
    1.2000    1.2100    1.2200    1.2300    1.2400    1.2500    1.2600    1.2700
    1.2800    1.2900    1.3000    1.3100    1.3200    1.3300    1.3400    1.3500
    1.3600    1.3700    1.3800    1.3900    1.4000    1.4100    1.4200    1.4300
    1.4400    1.4500    1.4600    1.4700    1.4800    1.4900    1.5000    1.5100
    1.5200    1.5300    1.5400    1.5500    1.5600    1.5700    1.5800    1.5900
    1.6000    1.6100    1.6200    1.6300    1.6400    1.6500    1.6600    1.6700
    1.6800    1.6900    1.7000    1.7100    1.7200    1.7300    1.7400    1.7500
    1.7600    1.7700    1.7800    1.7900    1.8000    1.8100    1.8200    1.8300
    1.8400    1.8500    1.8600    1.8700    1.8800    1.8900    1.9000    1.9100
    1.9200    1.9300    1.9400    1.9500    1.9600    1.9700    1.9800    1.9900
    2.0000    2.0100    2.0200    2.0300    2.0400    2.0500    2.0600    2.0700
    2.0800    2.0900    2.1000    2.1100    2.1200    2.1300    2.1400    2.1500
    2.1600    2.1700    2.1800    2.1900    2.2000    2.2100    2.2200    2.2300
    2.2400    2.2500    2.2600    2.2700    2.2800    2.2900    2.3000    2.3100
    2.3200    2.3300    2.3400    2.3500    2.3600    2.3700    2.3800    2.3900
    2.4000    2.4100    2.4200    2.4300    2.4400    2.4500    2.4600    2.4700
    2.4800    2.4900    2.5000    2.5100    2.5200    2.5300    2.5400    2.5500
    2.5600    2.5700    2.5800    2.5900    2.6000    2.6100    2.6200    2.6300
    2.6400    2.6500    2.6600    2.6700    2.6800    2.6900    2.7000    2.7100
    2.7200    2.7300    2.7400    2.7500    2.7600    2.7700    2.7800    2.7900
    2.8000    2.8100    2.8200    2.8300    2.8400    2.8500    2.8600    2.8700
    2.8800    2.8900    2.9000    2.9100    2.9200    2.9300    2.9400    2.9500
    2.9600    2.9700    2.9800    2.9900    3.0000    3.0100    3.0200    3.0300
    3.0400    3.0500    3.0600    3.0700    3.0800    3.0900    3.1000    3.1100
    3.1200    3.1300    3.1400    3.1500    3.1600    3.1700    3.1800    3.1900
    3.2000    3.2100    3.2200    3.2300    3.2400    3.2500    3.2600    3.2700
    3.2800    3.2900    3.3000    3.3100    3.3200    3.3300    3.3400    3.3500
    3.3600    3.3700    3.3800    3.3900    3.4000    3.4100    3.4200    3.4300
    3.4400    3.4500    3.4600    3.4700    3.4800    3.4900    3.5000    3.5100
    3.5200    3.5300    3.5400    3.5500    3.5600    3.5700    3.5800    3.5900
    3.6000    3.6100    3.6200    3.6300    3.6400    3.6500    3.6600    3.6700
    3.6800    3.6900    3.7000    3.7100    3.7200    3.7300    3.7400    3.7500
    3.7600    3.7700    3.7800    3.7900    3.8000    3.8100    3.8200    3.8300
    3.8400    3.8500    3.8600    3.8700    3.8800    3.8900    3.9000    3.9100
    3.9200    3.9300    3.9400    3.9500    3.9600    3.9700    3.9800    3.9900
    4.0000    4.0100    4.0200    4.0300    4.0400    4.0500    4.0600    4.0700
    4.0800    4.0900    4.1000    4.1100    4.1200    4.1300    4.1400    4.1500
    4.1600    4.1700    4.1800    4.1900    4.2000    4.2100    4.2200    4.2300
    4.2400    4.2500    4.2600    4.2700    4.2800    4.2900    4.3000    4.3100
    4.3200    4.3300    4.3400    4.3500    4.3600    4.3700    4.3800    4.3900
    4.4000    4.4100    4.4200    4.4300    4.4400    4.4500    4.4600    4.4700
    4.4800    4.4900    4.5000    4.5100    4.5200    4.5300    4.5400    4.5500
    4.5600    4.5700    4.5800    4.5900    4.6000    4.6100    4.6200    4.6300
    4.6400    4.6500    4.6600    4.6700    4.6800    4.6900    4.7000    4.7100
    4.7200    4.7300    4.7400    4.7500    4.7600    4.7700    4.7800    4.7900
    4.8000    4.8100    4.8200    4.8300    4.8400    4.8500    4.8600    4.8700
    4.8800    4.8900    4.9000    4.9100    4.9200    4.9300    4.9400    4.9500
    4.9600    4.9700    4.9800    4.9900    5.0000    5.0100    5.0200    5.0300
    5.0400    5.0500    5.0600    5.0700    5.0800    5.0900    5.1000    5.1100
    5.1200    5.1300    5.1400    5.1500    5.1600    5.1700    5.1800    5.1900
    5.2000    5.2100    5.2200    5.2300    5.2400    5.2500    5.2600    5.2700
    5.2800    5.2900    5.3000    5.3100    5.3200    5.3300    5.3400    5.3500
    5.3600    5.3700    5.3800    5.3900    5.4000    5.4100    5.4200    5.4300
    5.4400    5.4500    5.4600    5.4700    5.4800    5.4900    5.5000    5.5100
    5.5200    5.5300    5.5400    5.5500    5.5600    5.5700    5.5800    5.5900
    5.6000    5.6100    5.6200    5.6300    5.6400    5.6500    5.6600    5.6700
    5.6800    5.6900    5.7000    5.7100    5.7200    5.7300    5.7400    5.7500
    5.7600    5.7700    5.7800    5.7900    5.8000    5.8100    5.8200    5.8300
    5.8400    5.8500    5.8600    5.8700    5.8800    5.8900    5.9000    5.9100
    5.9200    5.9300    5.9400    5.9500    5.9600    5.9700    5.9800    5.9900
    6.0000    6.0100
   </PP_R>
   <PP_RAB type="real"  size=" 602" columns="8">
    0.0100    0.0100    0.0100    0.0100    0.0100    0.0100    0.0100    0.0100
    0.0100    0.0100    0.0100    0.0100    0.0100    0.0100    0.0100    0.0100
    0.0100    0.0100    0.0100    0.0100    0.0100    0.0100    0.0100    0.0100
    0.0100    0.0100    0.0100    0.0100    0.0100    0.0100    0.0100    0.0100
    0.0100    0.0100    0.0100    0.0100    0.0100    0.0100    0.0100    0.0100
    0.0100    0.0100    0.0100    0.0100    0.0100    0.0100    0.0100    0.0100
    0.0100    0.0100    0.0100    0.0100    0.0100    0.0100    0.0100    0.0100
    0.0100    0.0100    0.0100    0.0100    0.0100    0.0100    0.0100    0.0100
    0.0100    0.0100    0.0100    0.0100    0.0100    0.0100    0.0100    0.0100
    0.0100    0.0100    0.0100    0.0100    0.0100    0.0100    0.0100    0.0100
    0.0100    0.0100    0.0100    0.0100    0.0100    0.0100    0.0100    0.0100
    0.0100    0.0100    0.0100    0.0100    0.0100    0.0100    0.0100    0.0100
    0.0100    0.0100    0.0100    0.0100    0.0100    0.0100    0.0100    0.0100
    0.0100    0.0100    0.0100    0.0100    0.0100    0.0100    0.0100    0.0100
    0.0100    0.0100    0.0100    0.0100    0.0100    0.0100    0.0100    0.0100
    0.0100    0.0100    0.0100    0.0100    0.0100    0.0100    0.0100    0.0100
    0.0100    0.0100    0.0100    0.0100    0.0100    0.0100    0.0100    0.0100
    0.0100    0.0100    0.0100    0.0100    0.0100    0.0100    0.0100    0.0100
    0.0100    0.0100    0.0100    0.0100    0.0100    0.0100    0.0100    0.0100
    0.0100    0.0100    0.0100    0.0100    0.0100    0.0100    0.0100    0.0100
    0.0100    0.0100    0.0100    0.0100    0.0100    0.0100    0.0100    0.0100
    0.0100    0.0100    0.0100    0.0100    0.0100    0.0100    0.0100    0.0100
    0.0100    0.0100    0.0100    0.0100    0.0100    0.0100    0.0100    0.0100
    0.0100    0.0100    0.0100    0.0100    0.0100    0.0100    0.0100    0.0100
    0.0100    0.0100    0.0100    0.0100    0.0100    0.0100    0.0100    0.0100
    0.0100    0.0100    0.0100    0.0100    0.0100    0.0100    0.0100    0.0100
    0.0100    0.0100    0.0100    0.0100    0.0100    0.0100    0.0100    0.0100
    0.0100    0.0100    0.0100    0.0100    0.0100    0.0100    0.0100    0.0100
    0.0100    0.0100    0.0100    0.0100    0.0100    0.0100    0.0100    0.0100
    0.0100    0.0100    0.0100    0.0100    0.0100    0.0100    0.0100    0.0100
    0.0100    0.0100    0.0100    0.0100    0.0100    0.0100    0.0100    0.0100
    0.0100    0.0100    0.0100    0.0100    0.0100    0.0100    0.0100    0.0100
    0.0100    0.0100    0.0100    0.0100    0.0100    0.0100    0.0100    0.0100
    0.0100    0.0100    0.0100    0.0100    0.0100    0.0100    0.0100    0.0100
    0.0100    0.0100    0.0100    0.0100    0.0100    0.0100    0.0100    0.0100
    0.0100    0.0100    0.0100    0.0100    0.0100    0.0100    0.0100    0.0100
    0.0100    0.0100    0.0100    0.0100    0.0100    0.0100    0.0100    0.0100
    0.0100    0.0100    0.0100    0.0100    0.0100    0.0100    0.0100    0.0100
    0.0100    0.0100    0.0100    0.0100    0.0100    0.0100    0.0100    0.0100
    0.0100    0.0100    0.0100    0.0100    0.0100    0.0100    0.0100    0.0100
    0.0100    0.0100    0.0100    0.0100    0.0100    0.0100    0.0100    0.0100
    0.0100    0.0100    0.0100    0.0100    0.0100    0.0100    0.0100    0.0100
    0.0100    0.0100    0.0100    0.0100    0.0100    0.0100    0.0100    0.0100
    0.0100    0.0100    0.0100    0.0100    0.0100    0.0100    0.0100    0.0100
    0.0100    0.0100    0.0100    0.0100    0.0100    0.0100    0.0100    0.0100
    0.0100    0.0100    0.0100    0.0100    0.0100    0.0100    0.0100    0.0100
    0.0100    0.0100    0.0100    0.0100    0.0100    0.0100    0.0100    0.0100
    0.0100    0.0100    0.0100    0.0100    0.0100    0.0100    0.0100    0.0100
    0.0100    0.0100    0.0100    0.0100    0.0100    0.0100    0.0100    0.0100
    0.0100    0.0100    0.0100    0.0100    0.0100    0.0100    0.0100    0.0100
    0.0100    0.0100    0.0100    0.0100    0.0100    0.0100    0.0100    0.0100
    0.0100    0.0100    0.0100    0.0100    0.0100    0.0100    0.0100    0.0100
    0.0100    0.0100    0.0100    0.0100    0.0100    0.0100    0.0100    0.0100
    0.0100    0.0100    0.0100    0.0100    0.0100    0.0100    0.0100    0.0100
    0.0100    0.0100    0.0100    0.0100    0.0100    0.0100    0.0100    0.0100
    0.0100    0.0100    0.0100    0.0100    0.0100    0.0100    0.0100    0.0100
    0.0100    0.0100    0.0100    0.0100    0.0100    0.0100    0.0100    0.0100
    0.0100    0.0100    0.0100    0.0100    0.0100    0.0100    0.0100    0.0100
    0.0100    0.0100    0.0100    0.0100    0.0100    0.0100    0.0100    0.0100
    0.0100    0.0100    0.0100    0.0100    0.0100    0.0100    0.0100    0.0100
    0.0100    0.0100    0.0100    0.0100    0.0100    0.0100    0.0100    0.0100
    0.0100    0.0100    0.0100    0.0100    0.0100    0.0100    0.0100    0.0100
    0.0100    0.0100    0.0100    0.0100    0.0100    0.0100    0.0100    0.0100
    0.0100    0.0100    0.0100    0.0100    0.0100    0.0100    0.0100    0.0100
    0.0100    0.0100    0.0100    0.0100    0.0100    0.0100    0.0100    0.0100
    0.0100    0.0100    0.0100    0.0100    0.0100    0.0100    0.0100    0.0100
    0.0100    0.0100    0.0100    0.0100    0.0100    0.0100    0.0100    0.0100
    0.0100    0.0100    0.0100    0.0100    0.0100    0.0100    0.0100    0.0100
    0.0100    0.0100    0.0100    0.0100    0.0100    0.0100    0.0100    0.0100
    0.0100    0.0100    0.0100    0.0100    0.0100    0.0100    0.0100    0.0100
    0.0100    0.0100    0.0100    0.0100    0.0100    0.0100    0.0100    0.0100
    0.0100    0.0100    0.0100    0.0100    0.0100    0.0100    0.0100    0.0100
    0.0100    0.0100    0.0100    0.0100    0.0100    0.0100    0.0100    0.0100
    0.0100    0.0100    0.0100    0.0100    0.0100    0.0100    0.0100    0.0100
    0.0100    0.0100    0.0100    0.0100    0.0100    0.0100    0.0100    0.0100
    0.0100    0.0100
   </PP_RAB>
 </PP_MESH>
  <PP_LOCAL type="real"  size=" 602" columns="4">
   -2.5259205818E+01   -2.5261612725E+01   -2.5270066186E+01   -2.5282894241E+01
   -2.5298424929E+01   -2.5314695774E+01   -2.5329714399E+01   -2.5341675319E+01
   -2.5349103885E+01   -2.5350922225E+01   -2.5346449593E+01   -2.5335357917E+01
   -2.5317603797E+01   -2.5293354096E+01   -2.5262916488E+01   -2.5226681011E+01
   -2.5185074715E+01   -2.5138528986E+01   -2.5087457780E+01   -2.5032244559E+01
   -2.4973235725E+01   -2.4910738621E+01   -2.4845022537E+01   -2.4776321520E+01
   -2.4704838142E+01   -2.4630747609E+01   -2.4554201817E+01   -2.4475333155E+01
   -2.4394257886E+01   -2.4311079076E+01   -2.4225889069E+01   -2.4138771527E+01
   -2.4049803087E+01   -2.3959054688E+01   -2.3866592577E+01   -2.3772479137E+01
   -2.3676773457E+01   -2.3579531803E+01   -2.3480807927E+01   -2.3380653303E+01
   -2.3279117288E+01   -2.3176247233E+01   -2.3072088552E+01   -2.2966684763E+01
   -2.2860077520E+01   -2.2752306630E+01   -2.2643410064E+01   -2.2533423971E+01
   -2.2422382693E+01   -2.2310318793E+01   -2.2197263057E+01   -2.2083244553E+01
   -2.1968290684E+01   -2.1852427206E+01   -2.1735678333E+01   -2.1618066807E+01
   -2.1499613969E+01   -2.1380339905E+01   -2.1260263518E+01   -2.1139402702E+01
   -2.1017774452E+01   -2.0895395036E+01   -2.0772280164E+01   -2.0648445142E+01
   -2.0523905073E+01   -2.0398675034E+01   -2.0272770273E+01   -2.0146206393E+01
   -2.0018999535E+01   -1.9891166587E+01   -1.9762725349E+01   -1.9633694703E+01
   -1.9504094767E+01   -1.9373947030E+01   -1.9243274526E+01   -1.9112101914E+01
   -1.8980455570E+01   -1.8848363664E+01   -1.8715856217E+01   -1.8582965129E+01
   -1.8449724195E+01   -1.8316169091E+01   -1.8182337350E+01   -1.8048268304E+01
   -1.7914003027E+01   -1.7779584241E+01   -1.7645056224E+01   -1.7510464690E+01
   -1.7375856667E+01   -1.7241280360E+01   -1.7106785002E+01   -1.6972420707E+01
   -1.6838238307E+01   -1.6704289192E+01   -1.6570625148E+01   -1.6437298189E+01
   -1.6304360395E+01   -1.6171863757E+01   -1.6039860020E+01   -1.5908400500E+01
   -1.5777535952E+01   -1.5647316428E+01   -1.5517791132E+01   -1.5389008304E+01
   -1.5261015169E+01   -1.5133857574E+01   -1.5007580099E+01   -1.4882225903E+01
   -1.4757836665E+01   -1.4634452565E+01   -1.4512111818E+01   -1.4390851016E+01
   -1.4270704952E+01   -1.4151706835E+01   -1.4033887432E+01   -1.3917275754E+01
   -1.3801898923E+01   -1.3687782231E+01   -1.3574948336E+01   -1.3463418116E+01
   -1.3353210718E+01   -1.3244342685E+01   -1.3136828423E+01   -1.3030680648E+01
   -1.2925909798E+01   -1.2822523718E+01   -1.2720528709E+01   -1.2619928928E+01
   -1.2520725701E+01   -1.2422919002E+01   -1.2326506510E+01   -1.2231483113E+01
   -1.2137842580E+01   -1.2045575865E+01   -1.1954671518E+01   -1.1865117233E+01
   -1.1776896903E+01   -1.1689993138E+01   -1.1604386830E+01   -1.1520055191E+01
   -1.1436975039E+01   -1.1355119259E+01   -1.1274460794E+01   -1.1194971448E+01
   -1.1116624671E+01   -1.1039393849E+01   -1.0963253915E+01   -1.0888180086E+01
   -1.0814148420E+01   -1.0741136050E+01   -1.0669120161E+01   -1.0598079664E+01
   -1.0527993103E+01   -1.0458840785E+01   -1.0390602882E+01   -1.0323260803E+01
   -1.0256796332E+01   -1.0191191932E+01   -1.0126430864E+01   -1.0062496600E+01
   -9.9993737115E+00   -9.9370466249E+00   -9.8755010434E+00   -9.8147222825E+00
   -9.7546969850E+00   -9.6954112789E+00   -9.6368525575E+00   -9.5790076696E+00
   -9.5218645797E+00   -9.4654107546E+00   -9.4096345675E+00   -9.3545239920E+00
   -9.3000676718E+00   -9.2462539734E+00   -9.1930717007E+00   -9.1405094984E+00
   -9.0885562571E+00   -9.0372007094E+00   -8.9864319908E+00   -8.9362388880E+00
   -8.8866111890E+00   -8.8375386490E+00   -8.7890115936E+00   -8.7410208856E+00
   -8.6935572297E+00   -8.6466115418E+00   -8.6001745628E+00   -8.5542381166E+00
   -8.5087934398E+00   -8.4638326186E+00   -8.4193472997E+00   -8.3753297860E+00
   -8.3317723272E+00   -8.2886673588E+00   -8.2460077036E+00   -8.2037859050E+00
   -8.1619952866E+00   -8.1206286819E+00   -8.0796796404E+00   -8.0391415152E+00
   -7.9990078842E+00   -7.9592726729E+00   -7.9199294713E+00   -7.8809726439E+00
   -7.8423961170E+00   -7.8041943085E+00   -7.7663616812E+00   -7.7288925951E+00
   -7.6917819856E+00   -7.6550243819E+00   -7.6186148559E+00   -7.5825484125E+00
   -7.5468200141E+00   -7.5114251201E+00   -7.4763588233E+00   -7.4416166862E+00
   -7.4071942543E+00   -7.3730869427E+00   -7.3392906908E+00   -7.3058011144E+00
   -7.2726141263E+00   -7.2397257922E+00   -7.2071318839E+00   -7.1748287472E+00
   -7.1428124898E+00   -7.1110792625E+00   -7.0796255616E+00   -7.0484476162E+00
   -7.0175419363E+00   -6.9869051268E+00   -6.9565335525E+00   -6.9264240318E+00
   -6.8965732406E+00   -6.8669777766E+00   -6.8376346239E+00   -6.8085405532E+00
   -6.7796924161E+00   -6.7510872992E+00   -6.7227220861E+00   -6.6945938494E+00
   -6.6666997739E+00   -6.6390368559E+00   -6.6116023590E+00   -6.5843935649E+00
   -6.5574075814E+00   -6.5306418373E+00   -6.5040937114E+00   -6.4777604216E+00
   -6.4516395398E+00   -6.4257285435E+00   -6.4000247587E+00   -6.3745258827E+00
   -6.3492294930E+00   -6.3241330230E+00   -6.2992342789E+00   -6.2745309416E+00
   -6.2500205514E+00   -6.2257010090E+00   -6.2015701017E+00   -6.1776254783E+00
   -6.1538651191E+00   -6.1302869226E+00   -6.1068886490E+00   -6.0836683430E+00
   -6.0606240190E+00   -6.0377535553E+00   -6.0150550427E+00   -5.9925266151E+00
   -5.9701662770E+00   -5.9479721462E+00   -5.9259424719E+00   -5.9040753851E+00
   -5.8823690177E+00   -5.8608217249E+00   -5.8394317576E+00   -5.8181972463E+00
   -5.7971166562E+00   -5.7761883238E+00   -5.7554104863E+00   -5.7347815985E+00
   -5.7143001112E+00   -5.6939643824E+00   -5.6737728323E+00   -5.6537240274E+00
   -5.6338164498E+00   -5.6140484767E+00   -5.5944187846E+00   -5.5749259317E+00
   -5.5555683954E+00   -5.5363448091E+00   -5.5172538457E+00   -5.4982941065E+00
   -5.4794641536E+00   -5.4607627748E+00   -5.4421886596E+00   -5.4237404132E+00
   -5.4054168133E+00   -5.3872166481E+00   -5.3691386478E+00   -5.3511814957E+00
   -5.3333440968E+00   -5.3156252599E+00   -5.2980237246E+00   -5.2805383526E+00
   -5.2631680562E+00   -5.2459116996E+00   -5.2287680412E+00   -5.2117360989E+00
   -5.1948147928E+00   -5.1780030045E+00   -5.1612996266E+00   -5.1447037020E+00
   -5.1282141982E+00   -5.1118300166E+00   -5.0955501769E+00   -5.0793737375E+00
   -5.0632997142E+00   -5.0473270337E+00   -5.0314548244E+00   -5.0156821630E+00
   -5.0000081039E+00   -4.9844316252E+00   -4.9689519251E+00   -4.9535681089E+00
   -4.9382792582E+00   -4.9230844342E+00   -4.9079828605E+00   -4.8929736840E+00
   -4.8780560172E+00   -4.8632289902E+00   -4.8484918541E+00   -4.8338437957E+00
   -4.8192839614E+00   -4.8048115363E+00   -4.7904258019E+00   -4.7761259829E+00
   -4.7619112624E+00   -4.7477808679E+00   -4.7337341136E+00   -4.7197702604E+00
   -4.7058885310E+00   -4.6920881829E+00   -4.6783685657E+00   -4.6647289749E+00
   -4.6511686752E+00   -4.6376869426E+00   -4.6242831650E+00   -4.6109566703E+00
   -4.5977067680E+00   -4.5845327422E+00   -4.5714340206E+00   -4.5584099626E+00
   -4.5454599246E+00   -4.5325831892E+00   -4.5197792257E+00   -4.5070474232E+00
   -4.4943871710E+00   -4.4817977912E+00   -4.4692787463E+00   -4.4568294701E+00
   -4.4444493803E+00   -4.4321378504E+00   -4.4198943179E+00   -4.4077182659E+00
   -4.3956091391E+00   -4.3835663652E+00   -4.3715893489E+00   -4.3596776229E+00
   -4.3478306579E+00   -4.3360479246E+00   -4.3243288296E+00   -4.3126729141E+00
   -4.3010796870E+00   -4.2895486435E+00   -4.2780792479E+00   -4.2666709899E+00
   -4.2553234340E+00   -4.2440360990E+00   -4.2328085037E+00   -4.2216400998E+00
   -4.2105304873E+00   -4.1994792136E+00   -4.1884858199E+00   -4.1775498193E+00
   -4.1666707439E+00   -4.1558482015E+00   -4.1450817545E+00   -4.1343709656E+00
   -4.1237153418E+00   -4.1131145018E+00   -4.1025680438E+00   -4.0920755509E+00
   -4.0816365959E+00   -4.0712507159E+00   -4.0609175717E+00   -4.0506367659E+00
   -4.0404079007E+00   -4.0302305485E+00   -4.0201043116E+00   -4.0100288491E+00
   -4.0000037818E+00   -3.9900287308E+00   -3.9801032718E+00   -3.9702270613E+00
   -3.9603997593E+00   -3.9506210043E+00   -3.9408904350E+00   -3.9312076347E+00
   -3.9215723027E+00   -3.9119841033E+00   -3.9024426920E+00   -3.8929477243E+00
   -3.8834987940E+00   -3.8740956334E+00   -3.8647379143E+00   -3.8554253083E+00
   -3.8461574830E+00   -3.8369340577E+00   -3.8277547759E+00   -3.8186193244E+00
   -3.8095273900E+00   -3.8004786552E+00   -3.7914727570E+00   -3.7825094517E+00
   -3.7735884406E+00   -3.7647094253E+00   -3.7558721059E+00   -3.7470761285E+00
   -3.7383212649E+00   -3.7296072305E+00   -3.7209337404E+00   -3.7123005101E+00
   -3.7037072034E+00   -3.6951535934E+00   -3.6866394141E+00   -3.6781643941E+00
   -3.6697282619E+00   -3.6613307052E+00   -3.6529714873E+00   -3.6446503647E+00
   -3.6363670787E+00   -3.6281213704E+00   -3.6199129535E+00   -3.6117415750E+00
   -3.6036070157E+00   -3.5955090289E+00   -3.5874473680E+00   -3.5794217754E+00
   -3.5714319747E+00   -3.5634777733E+00   -3.5555589360E+00   -3.5476752275E+00
   -3.5398264126E+00   -3.5320122125E+00   -3.5242324360E+00   -3.5164868674E+00
   -3.5087752824E+00   -3.5010974568E+00   -3.4934531450E+00   -3.4858421181E+00
   -3.4782641923E+00   -3.4707191538E+00   -3.4632067889E+00   -3.4557268838E+00
   -3.4482791790E+00   -3.4408635114E+00   -3.4334796810E+00   -3.4261274840E+00
   -3.4188067165E+00   -3.4115171568E+00   -3.4042585912E+00   -3.3970308564E+00
   -3.3898337581E+00   -3.3826671018E+00   -3.3755306932E+00   -3.3684243028E+00
   -3.3613477655E+00   -3.3543009085E+00   -3.3472835464E+00   -3.3402954941E+00
   -3.3333365638E+00   -3.3264065293E+00   -3.3195052576E+00   -3.3126325719E+00
   -3.3057882955E+00   -3.2989722519E+00   -3.2921842510E+00   -3.2854240997E+00
   -3.2786916615E+00   -3.2719867680E+00   -3.2653092510E+00   -3.2586589418E+00
   -3.2520356515E+00   -3.2454392118E+00   -3.2388694860E+00   -3.2323263135E+00
   -3.2258095339E+00   -3.2193189865E+00   -3.2128544862E+00   -3.2064158819E+00
   -3.2000030397E+00   -3.1936158063E+00   -3.1872540289E+00   -3.1809175541E+00
   -3.1746062037E+00   -3.1683198366E+00   -3.1620583242E+00   -3.1558215205E+00
   -3.1496092795E+00   -3.1434214552E+00   -3.1372578788E+00   -3.1311184123E+00
   -3.1250029350E+00   -3.1189113079E+00   -3.1128433918E+00   -3.1067990474E+00
   -3.1007781178E+00   -3.0947804618E+00   -3.0888059692E+00   -3.0828545075E+00
   -3.0769259439E+00   -3.0710201459E+00   -3.0651369705E+00   -3.0592762674E+00
   -3.0534379393E+00   -3.0476218598E+00   -3.0418279024E+00   -3.0360559405E+00
   -3.0303058477E+00   -3.0245774597E+00   -3.0188706933E+00   -3.0131854280E+00
   -3.0075215433E+00   -3.0018789186E+00   -2.9962574334E+00   -2.9906569421E+00
   -2.9850773397E+00   -2.9795185239E+00   -2.9739803800E+00   -2.9684627929E+00
   -2.9629656475E+00   -2.9574888200E+00   -2.9520321779E+00   -2.9465956391E+00
   -2.9411790942E+00   -2.9357824334E+00   -2.9304055472E+00   -2.9250483258E+00
   -2.9197106327E+00   -2.9143923802E+00   -2.9090934725E+00   -2.9038138052E+00
   -2.8985532738E+00   -2.8933117737E+00   -2.8880891937E+00   -2.8828854086E+00
   -2.8777003469E+00   -2.8725339091E+00   -2.8673859954E+00   -2.8622565062E+00
   -2.8571453419E+00   -2.8520523841E+00   -2.8469775386E+00   -2.8419207260E+00
   -2.8368818514E+00   -2.8318608198E+00   -2.8268575362E+00   -2.8218719055E+00
   -2.8169038055E+00   -2.8119531658E+00   -2.8070199020E+00   -2.8021039235E+00
   -2.7972051397E+00   -2.7923234601E+00   -2.7874587936E+00   -2.7826110183E+00
   -2.7777800795E+00   -2.7729658909E+00   -2.7681683661E+00   -2.7633874189E+00
   -2.7586229628E+00   -2.7538749075E+00   -2.7491431434E+00   -2.7444276157E+00
   -2.7397282421E+00   -2.7350449404E+00   -2.7303776282E+00   -2.7257262231E+00
   -2.7210906381E+00   -2.7164707698E+00   -2.7118665659E+00   -2.7072779481E+00
   -2.7027048378E+00   -2.6981471564E+00   -2.6936048255E+00   -2.6890777636E+00
   -2.6845658682E+00   -2.6800690918E+00   -2.6755873594E+00   -2.6711205963E+00
   -2.6666687276E+00   -2.6622316784E+00
  </PP_LOCAL>
 <PP_NONLOCAL>
   <PP_BETA.1
       type="real"
       size=" 602"
       columns="4"
       index="1"
       angular_momentum="0"
       cutoff_radius_index=" 272"
       cutoff_radius="    2.7100000000E+00" >
    0.0000000000E+00    4.1353719343E-02    8.2669954271E-02    1.2391124383E-01
    1.6504017406E-01    2.0601940170E-01    2.4681167803E-01    2.8737987315E-01
    3.2768700043E-01    3.6769624153E-01    4.0737097187E-01    4.4667478656E-01
    4.8557152707E-01    5.2402530842E-01    5.6200054717E-01    5.9946199006E-01
    6.3637474352E-01    6.7270430386E-01    7.0841658844E-01    7.4347796752E-01
    7.7785529709E-01    8.1151595251E-01    8.4442786297E-01    8.7655954685E-01
    9.0788014785E-01    9.3835947188E-01    9.6796802488E-01    9.9667705113E-01
    1.0244585723E+00    1.0512854272E+00    1.0771313117E+00    1.1019708201E+00
    1.1257794853E+00    1.1485338202E+00    1.1702113604E+00    1.1907907035E+00
    1.2102515534E+00    1.2285747591E+00    1.2457423575E+00    1.2617376136E+00
    1.2765450604E+00    1.2901505386E+00    1.3025412351E+00    1.3137057208E+00
    1.3236339869E+00    1.3323174804E+00    1.3397491378E+00    1.3459234169E+00
    1.3508363276E+00    1.3544854583E+00    1.3568700074E+00    1.3579908028E+00
    1.3578503219E+00    1.3564527182E+00    1.3538038306E+00    1.3499111985E+00
    1.3447840767E+00    1.3384334342E+00    1.3308719691E+00    1.3221140983E+00
    1.3121759635E+00    1.3010754201E+00    1.2888320258E+00    1.2754670328E+00
    1.2610033631E+00    1.2454655894E+00    1.2288799108E+00    1.2112741199E+00
    1.1926775714E+00    1.1731211418E+00    1.1526371878E+00    1.1312595004E+00
    1.1090232546E+00    1.0859649581E+00    1.0621223845E+00    1.0375345165E+00
    1.0122414802E+00    9.8628447410E-01    9.5970569602E-01    9.3254826578E-01
    9.0485614504E-01    8.7667405385E-01    8.4804738415E-01    8.1902211053E-01
    7.8964469844E-01    7.5996200992E-01    7.3002120729E-01    6.9986965486E-01
    6.6955481903E-01    6.3912416699E-01    6.0862506430E-01    5.7810467174E-01
    5.4760984158E-01    5.1718701380E-01    4.8688211246E-01    4.5674044267E-01
    4.2680658860E-01    3.9712433321E-01    3.6773654380E-01    3.3868500016E-01