<UPF version="2.0.1">
  <PP_INFO>

 This pseudopotential file has been produced using the code
 ONCVPSP  (Optimized Norm-Conservinng Vanderbilt PSeudopotential)
 scalar-relativistic version 2.1.1, 03/26/2014 by D. R. Hamann
 The code is available through a link at URL www.mat-simresearch.com.
 Documentation with the package provides a full discription of the
 input data below.


 While it is not required under the terms of the GNU GPL, it is
 suggested that you cite D. R. Hamann, Phys. Rev. B 88, 085117 (2013)
 in any publication using these pseudopotentials.


 Copyright 2015 The Regents of the University of California
 
 This work is licensed under the Creative Commons Attribution-ShareAlike 
 4.0 International License. To view a copy of this license, visit 
 http://creativecommons.org/licenses/by-sa/4.0/ or send a letter to 
 Creative Commons, PO Box 1866, Mountain View, CA 94042, USA.
 
 This pseudopotential is part of the Schlipf-Gygi norm-conserving 
 pseudopotential library. Its construction parameters were tuned to 
 reproduce materials of a training set with very high accuracy and 
 should be suitable as a general purpose pseudopotential to treat a 
 variety of different compounds. For details of the construction and 
 testing of the pseudopotential please refer to:
 
 [insert reference to paper here]
 
 We kindly ask that you include this reference in all publications 
 associated to this pseudopotential.


    <PP_INPUTFILE>
# ATOM AND REFERENCE CONFIGURATION
# atsym  z    nc    nv    iexc   psfile
  As 33.00     6     2     4      upf
#
#   n    l    f        energy (Ha)
    1    0    2.00
    2    0    2.00
    2    1    6.00
    3    0    2.00
    3    1    6.00
    3    2   10.00
    4    0    2.00
    4    1    3.00
#
# PSEUDOPOTENTIAL AND OPTIMIZATION
# lmax
    2
#
#   l,   rc,     ep,   ncon, nbas, qcut
    0   2.94957  -0.53265    5    8   4.03745
    1   2.01365  -0.19091    5    8   6.31532
    2   2.94957   0.08462    5    8   4.23486
#
# LOCAL POTENTIAL
# lloc, lpopt,  rc(5),   dvloc0
    4    5   1.56744      0.00000
#
# VANDERBILT-KLEINMAN-BYLANDER PROJECTORs
# l, nproj, debl
    0    2   0.51497
    1    2   1.24958
    2    2   2.05880
#
# MODEL CORE CHARGE
# icmod, fcfact
    0   0.00000
#
# LOG DERIVATIVE ANALYSIS
# epsh1, epsh2, depsh
   -5.00    3.00    0.02
#
# OUTPUT GRID
# rlmax, drl
    6.00    0.01
#
# TEST CONFIGURATIONS
# ncnf
    0
# nvcnf
#   n    l    f
    </PP_INPUTFILE>
  </PP_INFO>
  <!--                               -->
  <!-- END OF HUMAN READABLE SECTION -->
  <!--                               -->
    <PP_HEADER
       generated="Generated using ONCVPSP code by D. R. Hamann"
       author="Martin Schlipf and Francois Gygi"
       date="150415"
       comment=""
       element="As"
       pseudo_type="NC"
       relativistic="scalar"
       is_ultrasoft="F"
       is_paw="F"
       is_coulomb="F"
       has_so="F"
       has_wfc="F"
       has_gipaw="F"
       core_correction="F"
       functional="PBE"
       z_valence="    5.00"
       total_psenergy="  -6.16909123459E+00"
       rho_cutoff="   6.01000000000E+00"
       l_max="2"
       l_local="-1"
       mesh_size="   602"
       number_of_wfc="0"
       number_of_proj="6"/>
 <PP_MESH>
   <PP_R type="real"  size=" 602" columns="8">
    0.0000    0.0100    0.0200    0.0300    0.0400    0.0500    0.0600    0.0700
    0.0800    0.0900    0.1000    0.1100    0.1200    0.1300    0.1400    0.1500
    0.1600    0.1700    0.1800    0.1900    0.2000    0.2100    0.2200    0.2300
    0.2400    0.2500    0.2600    0.2700    0.2800    0.2900    0.3000    0.3100
    0.3200    0.3300    0.3400    0.3500    0.3600    0.3700    0.3800    0.3900
    0.4000    0.4100    0.4200    0.4300    0.4400    0.4500    0.4600    0.4700
    0.4800    0.4900    0.5000    0.5100    0.5200    0.5300    0.5400    0.5500
    0.5600    0.5700    0.5800    0.5900    0.6000    0.6100    0.6200    0.6300
    0.6400    0.6500    0.6600    0.6700    0.6800    0.6900    0.7000    0.7100
    0.7200    0.7300    0.7400    0.7500    0.7600    0.7700    0.7800    0.7900
    0.8000    0.8100    0.8200    0.8300    0.8400    0.8500    0.8600    0.8700
    0.8800    0.8900    0.9000    0.9100    0.9200    0.9300    0.9400    0.9500
    0.9600    0.9700    0.9800    0.9900    1.0000    1.0100    1.0200    1.0300
    1.0400    1.0500    1.0600    1.0700    1.0800    1.0900    1.1000    1.1100
    1.1200    1.1300    1.1400    1.1500    1.1600    1.1700    1.1800    1.1900
    1.2000    1.2100    1.2200    1.2300    1.2400    1.2500    1.2600    1.2700
    1.2800    1.2900    1.3000    1.3100    1.3200    1.3300    1.3400    1.3500
    1.3600    1.3700    1.3800    1.3900    1.4000    1.4100    1.4200    1.4300
    1.4400    1.4500    1.4600    1.4700    1.4800    1.4900    1.5000    1.5100
    1.5200    1.5300    1.5400    1.5500    1.5600    1.5700    1.5800    1.5900
    1.6000    1.6100    1.6200    1.6300    1.6400    1.6500    1.6600    1.6700
    1.6800    1.6900    1.7000    1.7100    1.7200    1.7300    1.7400    1.7500
    1.7600    1.7700    1.7800    1.7900    1.8000    1.8100    1.8200    1.8300
    1.8400    1.8500    1.8600    1.8700    1.8800    1.8900    1.9000    1.9100
    1.9200    1.9300    1.9400    1.9500    1.9600    1.9700    1.9800    1.9900
    2.0000    2.0100    2.0200    2.0300    2.0400    2.0500    2.0600    2.0700
    2.0800    2.0900    2.1000    2.1100    2.1200    2.1300    2.1400    2.1500
    2.1600    2.1700    2.1800    2.1900    2.2000    2.2100    2.2200    2.2300
    2.2400    2.2500    2.2600    2.2700    2.2800    2.2900    2.3000    2.3100
    2.3200    2.3300    2.3400    2.3500    2.3600    2.3700    2.3800    2.3900
    2.4000    2.4100    2.4200    2.4300    2.4400    2.4500    2.4600    2.4700
    2.4800    2.4900    2.5000    2.5100    2.5200    2.5300    2.5400    2.5500
    2.5600    2.5700    2.5800    2.5900    2.6000    2.6100    2.6200    2.6300
    2.6400    2.6500    2.6600    2.6700    2.6800    2.6900    2.7000    2.7100
    2.7200    2.7300    2.7400    2.7500    2.7600    2.7700    2.7800    2.7900
    2.8000    2.8100    2.8200    2.8300    2.8400    2.8500    2.8600    2.8700
    2.8800    2.8900    2.9000    2.9100    2.9200    2.9300    2.9400    2.9500
    2.9600    2.9700    2.9800    2.9900    3.0000    3.0100    3.0200    3.0300
    3.0400    3.0500    3.0600    3.0700    3.0800    3.0900    3.1000    3.1100
    3.1200    3.1300    3.1400    3.1500    3.1600    3.1700    3.1800    3.1900
    3.2000    3.2100    3.2200    3.2300    3.2400    3.2500    3.2600    3.2700
    3.2800    3.2900    3.3000    3.3100    3.3200    3.3300    3.3400    3.3500
    3.3600    3.3700    3.3800    3.3900    3.4000    3.4100    3.4200    3.4300
    3.4400    3.4500    3.4600    3.4700    3.4800    3.4900    3.5000    3.5100
    3.5200    3.5300    3.5400    3.5500    3.5600    3.5700    3.5800    3.5900
    3.6000    3.6100    3.6200    3.6300    3.6400    3.6500    3.6600    3.6700
    3.6800    3.6900    3.7000    3.7100    3.7200    3.7300    3.7400    3.7500
    3.7600    3.7700    3.7800    3.7900    3.8000    3.8100    3.8200    3.8300
    3.8400    3.8500    3.8600    3.8700    3.8800    3.8900    3.9000    3.9100
    3.9200    3.9300    3.9400    3.9500    3.9600    3.9700    3.9800    3.9900
    4.0000    4.0100    4.0200    4.0300    4.0400    4.0500    4.0600    4.0700
    4.0800    4.0900    4.1000    4.1100    4.1200    4.1300    4.1400    4.1500
    4.1600    4.1700    4.1800    4.1900    4.2000    4.2100    4.2200    4.2300
    4.2400    4.2500    4.2600    4.2700    4.2800    4.2900    4.3000    4.3100
    4.3200    4.3300    4.3400    4.3500    4.3600    4.3700    4.3800    4.3900
    4.4000    4.4100    4.4200    4.4300    4.4400    4.4500    4.4600    4.4700
    4.4800    4.4900    4.5000    4.5100    4.5200    4.5300    4.5400    4.5500
    4.5600    4.5700    4.5800    4.5900    4.6000    4.6100    4.6200    4.6300
    4.6400    4.6500    4.6600    4.6700    4.6800    4.6900    4.7000    4.7100
    4.7200    4.7300    4.7400    4.7500    4.7600    4.7700    4.7800    4.7900
    4.8000    4.8100    4.8200    4.8300    4.8400    4.8500    4.8600    4.8700
    4.8800    4.8900    4.9000    4.9100    4.9200    4.9300    4.9400    4.9500
    4.9600    4.9700    4.9800    4.9900    5.0000    5.0100    5.0200    5.0300
    5.0400    5.0500    5.0600    5.0700    5.0800    5.0900    5.1000    5.1100
    5.1200    5.1300    5.1400    5.1500    5.1600    5.1700    5.1800    5.1900
    5.2000    5.2100    5.2200    5.2300    5.2400    5.2500    5.2600    5.2700
    5.2800    5.2900    5.3000    5.3100    5.3200    5.3300    5.3400    5.3500
    5.3600    5.3700    5.3800    5.3900    5.4000    5.4100    5.4200    5.4300
    5.4400    5.4500    5.4600    5.4700    5.4800    5.4900    5.5000    5.5100
    5.5200    5.5300    5.5400    5.5500    5.5600    5.5700    5.5800    5.5900
    5.6000    5.6100    5.6200    5.6300    5.6400    5.6500    5.6600    5.6700
    5.6800    5.6900    5.7000    5.7100    5.7200    5.7300    5.7400    5.7500
    5.7600    5.7700    5.7800    5.7900    5.8000    5.8100    5.8200    5.8300
    5.8400    5.8500    5.8600    5.8700    5.8800    5.8900    5.9000    5.9100
    5.9200    5.9300    5.9400    5.9500    5.9600    5.9700    5.9800    5.9900
    6.0000    6.0100
   </PP_R>
   <PP_RAB type="real"  size=" 602" columns="8">
    0.0100    0.0100    0.0100    0.0100    0.0100    0.0100    0.0100    0.0100
    0.0100    0.0100    0.0100    0.0100    0.0100    0.0100    0.0100    0.0100
    0.0100    0.0100    0.0100    0.0100    0.0100    0.0100    0.0100    0.0100
    0.0100    0.0100    0.0100    0.0100    0.0100    0.0100    0.0100    0.0100
    0.0100    0.0100    0.0100    0.0100    0.0100    0.0100    0.0100    0.0100
    0.0100    0.0100    0.0100    0.0100    0.0100    0.0100    0.0100    0.0100
    0.0100    0.0100    0.0100    0.0100    0.0100    0.0100    0.0100    0.0100
    0.0100    0.0100    0.0100    0.0100    0.0100    0.0100    0.0100    0.0100
    0.0100    0.0100    0.0100    0.0100    0.0100    0.0100    0.0100    0.0100
    0.0100    0.0100    0.0100    0.0100    0.0100    0.0100    0.0100    0.0100
    0.0100    0.0100    0.0100    0.0100    0.0100    0.0100    0.0100    0.0100
    0.0100    0.0100    0.0100    0.0100    0.0100    0.0100    0.0100    0.0100
    0.0100    0.0100    0.0100    0.0100    0.0100    0.0100    0.0100    0.0100
    0.0100    0.0100    0.0100    0.0100    0.0100    0.0100    0.0100    0.0100
    0.0100    0.0100    0.0100    0.0100    0.0100    0.0100    0.0100    0.0100
    0.0100    0.0100    0.0100    0.0100    0.0100    0.0100    0.0100    0.0100
    0.0100    0.0100    0.0100    0.0100    0.0100    0.0100    0.0100    0.0100
    0.0100    0.0100    0.0100    0.0100    0.0100    0.0100    0.0100    0.0100
    0.0100    0.0100    0.0100    0.0100    0.0100    0.0100    0.0100    0.0100
    0.0100    0.0100    0.0100    0.0100    0.0100    0.0100    0.0100    0.0100
    0.0100    0.0100    0.0100    0.0100    0.0100    0.0100    0.0100    0.0100
    0.0100    0.0100    0.0100    0.0100    0.0100    0.0100    0.0100    0.0100
    0.0100    0.0100    0.0100    0.0100    0.0100    0.0100    0.0100    0.0100
    0.0100    0.0100    0.0100    0.0100    0.0100    0.0100    0.0100    0.0100
    0.0100    0.0100    0.0100    0.0100    0.0100    0.0100    0.0100    0.0100
    0.0100    0.0100    0.0100    0.0100    0.0100    0.0100    0.0100    0.0100
    0.0100    0.0100    0.0100    0.0100    0.0100    0.0100    0.0100    0.0100
    0.0100    0.0100    0.0100    0.0100    0.0100    0.0100    0.0100    0.0100
    0.0100    0.0100    0.0100    0.0100    0.0100    0.0100    0.0100    0.0100
    0.0100    0.0100    0.0100    0.0100    0.0100    0.0100    0.0100    0.0100
    0.0100    0.0100    0.0100    0.0100    0.0100    0.0100    0.0100    0.0100
    0.0100    0.0100    0.0100    0.0100    0.0100    0.0100    0.0100    0.0100
    0.0100    0.0100    0.0100    0.0100    0.0100    0.0100    0.0100    0.0100
    0.0100    0.0100    0.0100    0.0100    0.0100    0.0100    0.0100    0.0100
    0.0100    0.0100    0.0100    0.0100    0.0100    0.0100    0.0100    0.0100
    0.0100    0.0100    0.0100    0.0100    0.0100    0.0100    0.0100    0.0100
    0.0100    0.0100    0.0100    0.0100    0.0100    0.0100    0.0100    0.0100
    0.0100    0.0100    0.0100    0.0100    0.0100    0.0100    0.0100    0.0100
    0.0100    0.0100    0.0100    0.0100    0.0100    0.0100    0.0100    0.0100
    0.0100    0.0100    0.0100    0.0100    0.0100    0.0100    0.0100    0.0100
    0.0100    0.0100    0.0100    0.0100    0.0100    0.0100    0.0100    0.0100
    0.0100    0.0100    0.0100    0.0100    0.0100    0.0100    0.0100    0.0100
    0.0100    0.0100    0.0100    0.0100    0.0100    0.0100    0.0100    0.0100
    0.0100    0.0100    0.0100    0.0100    0.0100    0.0100    0.0100    0.0100
    0.0100    0.0100    0.0100    0.0100    0.0100    0.0100    0.0100    0.0100
    0.0100    0.0100    0.0100    0.0100    0.0100    0.0100    0.0100    0.0100
    0.0100    0.0100    0.0100    0.0100    0.0100    0.0100    0.0100    0.0100
    0.0100    0.0100    0.0100    0.0100    0.0100    0.0100    0.0100    0.0100
    0.0100    0.0100    0.0100    0.0100    0.0100    0.0100    0.0100    0.0100
    0.0100    0.0100    0.0100    0.0100    0.0100    0.0100    0.0100    0.0100
    0.0100    0.0100    0.0100    0.0100    0.0100    0.0100    0.0100    0.0100
    0.0100    0.0100    0.0100    0.0100    0.0100    0.0100    0.0100    0.0100
    0.0100    0.0100    0.0100    0.0100    0.0100    0.0100    0.0100    0.0100
    0.0100    0.0100    0.0100    0.0100    0.0100    0.0100    0.0100    0.0100
    0.0100    0.0100    0.0100    0.0100    0.0100    0.0100    0.0100    0.0100
    0.0100    0.0100    0.0100    0.0100    0.0100    0.0100    0.0100    0.0100
    0.0100    0.0100    0.0100    0.0100    0.0100    0.0100    0.0100    0.0100
    0.0100    0.0100    0.0100    0.0100    0.0100    0.0100    0.0100    0.0100
    0.0100    0.0100    0.0100    0.0100    0.0100    0.0100    0.0100    0.0100
    0.0100    0.0100    0.0100    0.0100    0.0100    0.0100    0.0100    0.0100
    0.0100    0.0100    0.0100    0.0100    0.0100    0.0100    0.0100    0.0100
    0.0100    0.0100    0.0100    0.0100    0.0100    0.0100    0.0100    0.0100
    0.0100    0.0100    0.0100    0.0100    0.0100    0.0100    0.0100    0.0100
    0.0100    0.0100    0.0100    0.0100    0.0100    0.0100    0.0100    0.0100
    0.0100    0.0100    0.0100    0.0100    0.0100    0.0100    0.0100    0.0100
    0.0100    0.0100    0.0100    0.0100    0.0100    0.0100    0.0100    0.0100
    0.0100    0.0100    0.0100    0.0100    0.0100    0.0100    0.0100    0.0100
    0.0100    0.0100    0.0100    0.0100    0.0100    0.0100    0.0100    0.0100
    0.0100    0.0100    0.0100    0.0100    0.0100    0.0100    0.0100    0.0100
    0.0100    0.0100    0.0100    0.0100    0.0100    0.0100    0.0100    0.0100
    0.0100    0.0100    0.0100    0.0100    0.0100    0.0100    0.0100    0.0100
    0.0100    0.0100    0.0100    0.0100    0.0100    0.0100    0.0100    0.0100
    0.0100    0.0100    0.0100    0.0100    0.0100    0.0100    0.0100    0.0100
    0.0100    0.0100    0.0100    0.0100    0.0100    0.0100    0.0100    0.0100
    0.0100    0.0100    0.0100    0.0100    0.0100    0.0100    0.0100    0.0100
    0.0100    0.0100
   </PP_RAB>
 </PP_MESH>
  <PP_LOCAL type="real"  size=" 602" columns="4">
   -1.6898624469E+01   -1.6897837183E+01   -1.6895475192E+01   -1.6891538628E+01
   -1.6886027622E+01   -1.6878942363E+01   -1.6870283091E+01   -1.6860050110E+01
   -1.6848243780E+01   -1.6834864531E+01   -1.6819912858E+01   -1.6803389338E+01
   -1.6785294630E+01   -1.6765629486E+01   -1.6744394765E+01   -1.6721591448E+01
   -1.6697220649E+01   -1.6671283640E+01   -1.6643781870E+01   -1.6614716995E+01
   -1.6584090902E+01   -1.6551905743E+01   -1.6518163974E+01   -1.6482868393E+01
   -1.6446022180E+01   -1.6407628946E+01   -1.6367692780E+01   -1.6326218299E+01
   -1.6283210703E+01   -1.6238675824E+01   -1.6192620181E+01   -1.6145051033E+01
   -1.6095976431E+01   -1.6045405269E+01   -1.5993347327E+01   -1.5939813318E+01
   -1.5884814924E+01   -1.5828364834E+01   -1.5770476768E+01   -1.5711165504E+01
   -1.5650446892E+01   -1.5588337865E+01   -1.5524856444E+01   -1.5460021734E+01
   -1.5393853915E+01   -1.5326374231E+01   -1.5257604965E+01   -1.5187569417E+01
   -1.5116291870E+01   -1.5043797568E+01   -1.4970112666E+01   -1.4895264197E+01
   -1.4819280025E+01   -1.4742188816E+01   -1.4664019970E+01   -1.4584803605E+01
   -1.4504570485E+01   -1.4423351998E+01   -1.4341180093E+01   -1.4258087257E+01
   -1.4174106453E+01   -1.4089271101E+01   -1.4003615016E+01   -1.3917172391E+01
   -1.3829977748E+01   -1.3742065903E+01   -1.3653471939E+01   -1.3564231167E+01
   -1.3474379094E+01   -1.3383951388E+01   -1.3292983858E+01   -1.3201512411E+01
   -1.3109573024E+01   -1.3017201717E+01   -1.2924434516E+01   -1.2831307430E+01
   -1.2737856409E+01   -1.2644117320E+01   -1.2550125910E+01   -1.2455917774E+01
   -1.2361528322E+01   -1.2266992744E+01   -1.2172345973E+01   -1.2077622653E+01
   -1.1982857099E+01   -1.1888083264E+01   -1.1793334698E+01   -1.1698644517E+01
   -1.1604045359E+01   -1.1509569356E+01   -1.1415248087E+01   -1.1321112554E+01
   -1.1227193137E+01   -1.1133519570E+01   -1.1040120903E+01   -1.0947025473E+01
   -1.0854260905E+01   -1.0761854020E+01   -1.0669830861E+01   -1.0578216669E+01
   -1.0487035865E+01   -1.0396312038E+01   -1.0306067944E+01   -1.0216325537E+01
   -1.0127105833E+01   -1.0038429053E+01   -9.9503146008E+00   -9.8627810721E+00
   -9.7758463441E+00   -9.6895273772E+00   -9.6038404655E+00   -9.5188012049E+00
   -9.4344245825E+00   -9.3507248506E+00   -9.2677156824E+00   -9.1854102340E+00
   -9.1038212195E+00   -9.0229607561E+00   -8.9428405896E+00   -8.8634721221E+00
   -8.7848663988E+00   -8.7070340835E+00   -8.6299856094E+00   -8.5537312000E+00
   -8.4782807162E+00   -8.4036438471E+00   -8.3298301199E+00   -8.2568487147E+00
   -8.1847086101E+00   -8.1134186408E+00   -8.0429871836E+00   -7.9734223744E+00
   -7.9047321442E+00   -7.8369237538E+00   -7.7700042198E+00   -7.7039800929E+00
   -7.6388570816E+00   -7.5746407067E+00   -7.5113354098E+00   -7.4489449382E+00
   -7.3874726391E+00   -7.3269201530E+00   -7.2672890121E+00   -7.2085790768E+00
   -7.1507892199E+00   -7.0939176702E+00   -7.0379602602E+00   -6.9829130980E+00
   -6.9287692365E+00   -6.8755215881E+00   -6.8231609700E+00   -6.7716765511E+00
   -6.7210567994E+00   -6.6712869008E+00   -6.6223528113E+00   -6.5742357820E+00
   -6.5269183759E+00   -6.4803784851E+00   -6.4345950787E+00   -6.3895460674E+00
   -6.3452104418E+00   -6.3015687679E+00   -6.2586023231E+00   -6.2162935060E+00
   -6.1746256333E+00   -6.1335826592E+00   -6.0931495638E+00   -6.0533116727E+00
   -6.0140553141E+00   -5.9753670173E+00   -5.9372342034E+00   -5.8996444571E+00
   -5.8625860906E+00   -5.8260476164E+00   -5.7900180791E+00   -5.7544868131E+00
   -5.7194434711E+00   -5.6848781219E+00   -5.6507809285E+00   -5.6171426223E+00
   -5.5839537998E+00   -5.5512057947E+00   -5.5188895766E+00   -5.4869970154E+00
   -5.4555194474E+00   -5.4244491408E+00   -5.3937779261E+00   -5.3634982754E+00
   -5.3336025343E+00   -5.3040833412E+00   -5.2749335268E+00   -5.2461458697E+00
   -5.2177136497E+00   -5.1896297736E+00   -5.1618878570E+00   -5.1344811470E+00
   -5.1074033355E+00   -5.0806480846E+00   -5.0542091264E+00   -5.0280805356E+00
   -5.0022560478E+00   -4.9767301136E+00   -4.9514967683E+00   -4.9265505393E+00
   -4.9018860520E+00   -4.8774977974E+00   -4.8533809091E+00   -4.8295301264E+00
   -4.8059406524E+00   -4.7826076243E+00   -4.7595261729E+00   -4.7366917822E+00
   -4.7140996198E+00   -4.6917453512E+00   -4.6696245546E+00   -4.6477327732E+00
   -4.6260659680E+00   -4.6046197857E+00   -4.5833902618E+00   -4.5623734649E+00
   -4.5415652662E+00   -4.5209620935E+00   -4.5005600684E+00   -4.4803555130E+00
   -4.4603450012E+00   -4.4405247942E+00   -4.4208916514E+00   -4.4014422479E+00
   -4.3821730995E+00   -4.3630812764E+00   -4.3441635468E+00   -4.3254168170E+00
   -4.3068383124E+00   -4.2884249506E+00   -4.2701740093E+00   -4.2520828621E+00
   -4.2341485866E+00   -4.2163688033E+00   -4.1987410230E+00   -4.1812625212E+00
   -4.1639311980E+00   -4.1467446848E+00   -4.1297005441E+00   -4.1127968364E+00
   -4.0960313549E+00   -4.0794019211E+00   -4.0629067486E+00   -4.0465437943E+00
   -4.0303111055E+00   -4.0142070449E+00   -3.9982297345E+00   -3.9823774132E+00
   -3.9666485871E+00   -3.9510415408E+00   -3.9355546709E+00   -3.9201866200E+00
   -3.9049358306E+00   -3.8898008259E+00   -3.8747803754E+00   -3.8598730719E+00
   -3.8450775372E+00   -3.8303926561E+00   -3.8158171598E+00   -3.8013497477E+00
   -3.7869894037E+00   -3.7727349830E+00   -3.7585852471E+00   -3.7445392610E+00
   -3.7305959723E+00   -3.7167542352E+00   -3.7030131368E+00   -3.6893717044E+00
   -3.6758288948E+00   -3.6623837848E+00   -3.6490354689E+00   -3.6357829858E+00
   -3.6226254057E+00   -3.6095618683E+00   -3.5965914707E+00   -3.5837132867E+00
   -3.5709264800E+00   -3.5582301777E+00   -3.5456234859E+00   -3.5331055583E+00
   -3.5206755427E+00   -3.5083325746E+00   -3.4960757967E+00   -3.4839043690E+00
   -3.4718174421E+00   -3.4598141555E+00   -3.4478936771E+00   -3.4360551638E+00
   -3.4242977561E+00   -3.4126206213E+00   -3.4010229460E+00   -3.3895038988E+00
   -3.3780625806E+00   -3.3666982821E+00   -3.3554102175E+00   -3.3441975518E+00
   -3.3330595232E+00   -3.3219954417E+00   -3.3110045690E+00   -3.3000861073E+00
   -3.2892394008E+00   -3.2784637483E+00   -3.2677584204E+00   -3.2571226909E+00
   -3.2465559398E+00   -3.2360574952E+00   -3.2256266409E+00   -3.2152627420E+00
   -3.2049651854E+00   -3.1947333309E+00   -3.1845664775E+00   -3.1744640677E+00
   -3.1644254979E+00   -3.1544501476E+00   -3.1445373673E+00   -3.1346866313E+00
   -3.1248973589E+00   -3.1151689459E+00   -3.1055008027E+00   -3.0958924182E+00
   -3.0863432391E+00   -3.0768526798E+00   -3.0674202011E+00   -3.0580453076E+00
   -3.0487274724E+00   -3.0394661303E+00   -3.0302607832E+00   -3.0211109535E+00
   -3.0120161390E+00   -3.0029757970E+00   -2.9939894618E+00   -2.9850566749E+00
   -2.9761769582E+00   -2.9673497928E+00   -2.9585747372E+00   -2.9498513542E+00
   -2.9411791881E+00   -2.9325577457E+00   -2.9239866018E+00   -2.9154653424E+00
   -2.9069935332E+00   -2.8985707079E+00   -2.8901964506E+00   -2.8818703721E+00
   -2.8735920584E+00   -2.8653610716E+00   -2.8571769986E+00   -2.8490394761E+00
   -2.8409481094E+00   -2.8329024906E+00   -2.8249022033E+00   -2.8169469112E+00
   -2.8090362381E+00   -2.8011698070E+00   -2.7933471936E+00   -2.7855680886E+00
   -2.7778321335E+00   -2.7701389699E+00   -2.7624882024E+00   -2.7548795077E+00
   -2.7473125578E+00   -2.7397870109E+00   -2.7323025053E+00   -2.7248586956E+00
   -2.7174552857E+00   -2.7100919499E+00   -2.7027683617E+00   -2.6954841496E+00
   -2.6882390492E+00   -2.6810327498E+00   -2.6738649407E+00   -2.6667352843E+00
   -2.6596434846E+00   -2.6525892657E+00   -2.6455723314E+00   -2.6385923818E+00
   -2.6316490840E+00   -2.6247421968E+00   -2.6178714377E+00   -2.6110365242E+00
   -2.6042371500E+00   -2.5974730420E+00   -2.5907439520E+00   -2.5840496108E+00
   -2.5773897489E+00   -2.5707640572E+00   -2.5641723142E+00   -2.5576142664E+00
   -2.5510896567E+00   -2.5445982166E+00   -2.5381396730E+00   -2.5317138119E+00
   -2.5253203881E+00   -2.5189591568E+00   -2.5126298495E+00   -2.5063322322E+00
   -2.5000660898E+00   -2.4938311885E+00   -2.4876272947E+00   -2.4814541429E+00
   -2.4753115309E+00   -2.4691992445E+00   -2.4631170608E+00   -2.4570647570E+00
   -2.4510420726E+00   -2.4450488306E+00   -2.4390848199E+00   -2.4331498278E+00
   -2.4272436386E+00   -2.4213660086E+00   -2.4155167698E+00   -2.4096957196E+00
   -2.4039026552E+00   -2.3981373686E+00   -2.3923996310E+00   -2.3866892814E+00
   -2.3810061264E+00   -2.3753499725E+00   -2.3697206213E+00   -2.3641178539E+00
   -2.3585415174E+00   -2.3529914272E+00   -2.3474673990E+00   -2.3419692457E+00
   -2.3364967528E+00   -2.3310497774E+00   -2.3256281436E+00   -2.3202316753E+00
   -2.3148601967E+00   -2.3095134987E+00   -2.3041914442E+00   -2.2988938671E+00
   -2.2936205996E+00   -2.2883714740E+00   -2.2831462960E+00   -2.2779449217E+00
   -2.2727671992E+00   -2.2676129686E+00   -2.2624820697E+00   -2.2573743249E+00
   -2.2522895789E+00   -2.2472276956E+00   -2.2421885222E+00   -2.2371719061E+00
   -2.2321776877E+00   -2.2272056966E+00   -2.2222558132E+00   -2.2173278919E+00
   -2.2124217871E+00   -2.2075373532E+00   -2.2026744178E+00   -2.1978328622E+00
   -2.1930125528E+00   -2.1882133510E+00   -2.1834351177E+00   -2.1786777016E+00
   -2.1739409597E+00   -2.1692247786E+00   -2.1645290260E+00   -2.1598535694E+00
   -2.1551982765E+00   -2.1505629874E+00   -2.1459475990E+00   -2.1413519885E+00
   -2.1367760296E+00   -2.1322195959E+00   -2.1276825513E+00   -2.1231647607E+00
   -2.1186661242E+00   -2.1141865213E+00   -2.1097258316E+00   -2.1052839346E+00
   -2.1008606897E+00   -2.0964559911E+00   -2.0920697333E+00   -2.0877018014E+00
   -2.0833520807E+00   -2.0790204562E+00   -2.0747067853E+00   -2.0704109856E+00
   -2.0661329482E+00   -2.0618725635E+00   -2.0576297221E+00   -2.0534043084E+00
   -2.0491961979E+00   -2.0450053081E+00   -2.0408315348E+00   -2.0366747734E+00
   -2.0325349197E+00   -2.0284118588E+00   -2.0243054810E+00   -2.0202157042E+00
   -2.0161424286E+00   -2.0120855549E+00   -2.0080449834E+00   -2.0040206022E+00
   -2.0000123115E+00   -1.9960200310E+00   -1.9920436658E+00   -1.9880831211E+00
   -1.9841383018E+00   -1.9802091005E+00   -1.9762954230E+00   -1.9723971926E+00
   -1.9685143188E+00   -1.9646467112E+00   -1.9607942792E+00   -1.9569569215E+00
   -1.9531345451E+00   -1.9493270788E+00   -1.9455344362E+00   -1.9417565311E+00
   -1.9379932772E+00   -1.9342445807E+00   -1.9305103462E+00   -1.9267905091E+00
   -1.9230849872E+00   -1.9193936982E+00   -1.9157165599E+00   -1.9120534876E+00
   -1.9084043796E+00   -1.9047691797E+00   -1.9011478092E+00   -1.8975401899E+00
   -1.8939462432E+00   -1.8903658907E+00   -1.8867990345E+00   -1.8832456141E+00
   -1.8797055593E+00   -1.8761787952E+00   -1.8726652470E+00   -1.8691648401E+00
   -1.8656774885E+00   -1.8622031175E+00   -1.8587416685E+00   -1.8552930701E+00
   -1.8518572510E+00   -1.8484341400E+00   -1.8450236647E+00   -1.8416257333E+00
   -1.8382402995E+00   -1.8348672953E+00   -1.8315066527E+00   -1.8281583037E+00
   -1.8248221805E+00   -1.8214982030E+00   -1.8181863065E+00   -1.8148864366E+00
   -1.8115985285E+00   -1.8083225175E+00   -1.8050583388E+00   -1.8018059275E+00
   -1.7985651981E+00   -1.7953361085E+00   -1.7921185978E+00   -1.7889126042E+00
   -1.7857180661E+00   -1.7825349215E+00   -1.7793631024E+00   -1.7762025392E+00
   -1.7730531879E+00   -1.7699149897E+00   -1.7667878857E+00   -1.7636718170E+00
   -1.7605667247E+00   -1.7574725382E+00   -1.7543892026E+00   -1.7513166709E+00
   -1.7482548870E+00   -1.7452037948E+00   -1.7421633381E+00   -1.7391334608E+00
   -1.7361140918E+00   -1.7331051862E+00   -1.7301066961E+00   -1.7271185680E+00
   -1.7241407482E+00   -1.7211731832E+00   -1.7182158196E+00   -1.7152685874E+00
   -1.7123314481E+00   -1.7094043540E+00   -1.7064872542E+00   -1.7035800977E+00
   -1.7006828333E+00   -1.6977954101E+00   -1.6949177607E+00   -1.6920498493E+00
   -1.6891916304E+00   -1.6863430552E+00   -1.6835040752E+00   -1.6806746417E+00
   -1.6778547060E+00   -1.6750442048E+00   -1.6722431015E+00   -1.6694513542E+00
   -1.6666689163E+00   -1.6638957416E+00
  </PP_LOCAL>
 <PP_NONLOCAL>
   <PP_BETA.1
       type="real"
       size=" 602"
       columns="4"
       index="1"
       angular_momentum="0"
       cutoff_radius_index=" 298"
       cutoff_radius="    2.9700000000E+00" >
    0.0000000000E+00   -2.6041779760E-02   -5.2076716484E-02   -7.8097944738E-02
   -1.0409855438E-01   -1.3007156840E-01   -1.5600992107E-01   -1.8190643639E-01
   -2.0775380699E-01   -2.3354457352E-01   -2.5927110465E-01   -2.8492557778E-01
   -3.1049996045E-01   -3.3598599264E-01   -3.6137516992E-01   -3.8665872768E-01
   -4.1182762633E-01   -4.3687253772E-01   -4.6178383267E-01   -4.8655156987E-01
   -5.1116548602E-01   -5.3561498741E-01   -5.5988914298E-01   -5.8397667876E-01
   -6.0786597406E-01   -6.3154505901E-01   -6.5500161400E-01   -6.7822297057E-01
   -7.0119611419E-01   -7.2390768866E-01   -7.4634400236E-01   -7.6849103624E-01
   -7.9033445360E-01   -8.1185961172E-01   -8.3305157536E-01   -8.5389513184E-01
   -8.7437480831E-01   -8.9447489052E-01   -9.1417944320E-01   -9.3347233297E-01
   -9.5233725207E-01   -9.7075774427E-01   -9.8871723231E-01   -1.0061990470E+00
   -1.0231864578E+00   -1.0396627049E+00   -1.0556110330E+00   -1.0710147259E+00
   -1.0858571415E+00   -1.1001217522E+00   -1.1137921811E+00   -1.1268522407E+00
   -1.1392859743E+00   -1.1510777002E+00   -1.1622120451E+00   -1.1726739979E+00
   -1.1824489420E+00   -1.1915227062E+00   -1.1998816022E+00   -1.2075124753E+00
   -1.2144027353E+00   -1.2205404200E+00   -1.2259142122E+00   -1.2305135055E+00
   -1.2343284364E+00   -1.2373499146E+00   -1.2395696845E+00   -1.2409803527E+00
   -1.2415754228E+00   -1.2413493264E+00   -1.2402974846E+00   -1.2384163156E+00
   -1.2357032734E+00   -1.2321568778E+00   -1.2277767376E+00   -1.2225635863E+00
   -1.2165193007E+00   -1.2096469168E+00   -1.2019506502E+00   -1.1934359119E+00
   -1.1841093205E+00   -1.1739787120E+00   -1.1630531462E+00   -1.1513429105E+00
   -1.1388595205E+00   -1.1256157169E+00   -1.1116254597E+00   -1.0969039193E+00
   -1.0814674634E+00   -1.0653336414E+00   -1.0485211652E+00   -1.0310498865E+00
   -1.0129407705E+00   -9.9421586705E-01   -9.7489827778E-01   -9.5501212023E-01