<UPF version="2.0.1">
  <PP_INFO>

 This pseudopotential file has been produced using the code
 ONCVPSP  (Optimized Norm-Conservinng Vanderbilt PSeudopotential)
 scalar-relativistic version 2.1.1, 03/26/2014 by D. R. Hamann
 The code is available through a link at URL www.mat-simresearch.com.
 Documentation with the package provides a full discription of the
 input data below.


 While it is not required under the terms of the GNU GPL, it is
 suggested that you cite D. R. Hamann, Phys. Rev. B 88, 085117 (2013)
 in any publication using these pseudopotentials.


 Copyright 2015 The Regents of the University of California
 
 This work is licensed under the Creative Commons Attribution-ShareAlike 
 4.0 International License. To view a copy of this license, visit 
 http://creativecommons.org/licenses/by-sa/4.0/ or send a letter to 
 Creative Commons, PO Box 1866, Mountain View, CA 94042, USA.
 
 This pseudopotential is part of the Schlipf-Gygi norm-conserving 
 pseudopotential library. Its construction parameters were tuned to 
 reproduce materials of a training set with very high accuracy and 
 should be suitable as a general purpose pseudopotential to treat a 
 variety of different compounds. For details of the construction and 
 testing of the pseudopotential please refer to:
 
 [insert reference to paper here]
 
 We kindly ask that you include this reference in all publications 
 associated to this pseudopotential.


    <PP_INPUTFILE>
# ATOM AND REFERENCE CONFIGURATION
# atsym  z    nc    nv    iexc   psfile
  B  5.00     1     2     4      upf
#
#   n    l    f        energy (Ha)
    1    0    2.00
    2    0    2.00
    2    1    1.00
#
# PSEUDOPOTENTIAL AND OPTIMIZATION
# lmax
    1
#
#   l,   rc,     ep,   ncon, nbas, qcut
    0   1.77019  -0.34703    5    8   8.06008
    1   1.90153  -0.13255    5    8   7.08856
#
# LOCAL POTENTIAL
# lloc, lpopt,  rc(5),   dvloc0
    4    5   1.37794      0.00000
#
# VANDERBILT-KLEINMAN-BYLANDER PROJECTORs
# l, nproj, debl
    0    2   0.76885
    1    2   1.77366
#
# MODEL CORE CHARGE
# icmod, fcfact
    0   0.00000
#
# LOG DERIVATIVE ANALYSIS
# epsh1, epsh2, depsh
   -5.00    3.00    0.02
#
# OUTPUT GRID
# rlmax, drl
    6.00    0.01
#
# TEST CONFIGURATIONS
# ncnf
    0
# nvcnf
#   n    l    f
    </PP_INPUTFILE>
  </PP_INFO>
  <!--                               -->
  <!-- END OF HUMAN READABLE SECTION -->
  <!--                               -->
    <PP_HEADER
       generated="Generated using ONCVPSP code by D. R. Hamann"
       author="Martin Schlipf and Francois Gygi"
       date="150105"
       comment=""
       element="B "
       pseudo_type="NC"
       relativistic="scalar"
       is_ultrasoft="F"
       is_paw="F"
       is_coulomb="F"
       has_so="F"
       has_wfc="F"
       has_gipaw="F"
       core_correction="F"
       functional="PBE"
       z_valence="    3.00"
       total_psenergy="  -2.58893081108E+00"
       rho_cutoff="   6.01000000000E+00"
       l_max="1"
       l_local="-1"
       mesh_size="   602"
       number_of_wfc="0"
       number_of_proj="4"/>
 <PP_MESH>
   <PP_R type="real"  size=" 602" columns="8">
    0.0000    0.0100    0.0200    0.0300    0.0400    0.0500    0.0600    0.0700
    0.0800    0.0900    0.1000    0.1100    0.1200    0.1300    0.1400    0.1500
    0.1600    0.1700    0.1800    0.1900    0.2000    0.2100    0.2200    0.2300
    0.2400    0.2500    0.2600    0.2700    0.2800    0.2900    0.3000    0.3100
    0.3200    0.3300    0.3400    0.3500    0.3600    0.3700    0.3800    0.3900
    0.4000    0.4100    0.4200    0.4300    0.4400    0.4500    0.4600    0.4700
    0.4800    0.4900    0.5000    0.5100    0.5200    0.5300    0.5400    0.5500
    0.5600    0.5700    0.5800    0.5900    0.6000    0.6100    0.6200    0.6300
    0.6400    0.6500    0.6600    0.6700    0.6800    0.6900    0.7000    0.7100
    0.7200    0.7300    0.7400    0.7500    0.7600    0.7700    0.7800    0.7900
    0.8000    0.8100    0.8200    0.8300    0.8400    0.8500    0.8600    0.8700
    0.8800    0.8900    0.9000    0.9100    0.9200    0.9300    0.9400    0.9500
    0.9600    0.9700    0.9800    0.9900    1.0000    1.0100    1.0200    1.0300
    1.0400    1.0500    1.0600    1.0700    1.0800    1.0900    1.1000    1.1100
    1.1200    1.1300    1.1400    1.1500    1.1600    1.1700    1.1800    1.1900
    1.2000    1.2100    1.2200    1.2300    1.2400    1.2500    1.2600    1.2700
    1.2800    1.2900    1.3000    1.3100    1.3200    1.3300    1.3400    1.3500
    1.3600    1.3700    1.3800    1.3900    1.4000    1.4100    1.4200    1.4300
    1.4400    1.4500    1.4600    1.4700    1.4800    1.4900    1.5000    1.5100
    1.5200    1.5300    1.5400    1.5500    1.5600    1.5700    1.5800    1.5900
    1.6000    1.6100    1.6200    1.6300    1.6400    1.6500    1.6600    1.6700
    1.6800    1.6900    1.7000    1.7100    1.7200    1.7300    1.7400    1.7500
    1.7600    1.7700    1.7800    1.7900    1.8000    1.8100    1.8200    1.8300
    1.8400    1.8500    1.8600    1.8700    1.8800    1.8900    1.9000    1.9100
    1.9200    1.9300    1.9400    1.9500    1.9600    1.9700    1.9800    1.9900
    2.0000    2.0100    2.0200    2.0300    2.0400    2.0500    2.0600    2.0700
    2.0800    2.0900    2.1000    2.1100    2.1200    2.1300    2.1400    2.1500
    2.1600    2.1700    2.1800    2.1900    2.2000    2.2100    2.2200    2.2300
    2.2400    2.2500    2.2600    2.2700    2.2800    2.2900    2.3000    2.3100
    2.3200    2.3300    2.3400    2.3500    2.3600    2.3700    2.3800    2.3900
    2.4000    2.4100    2.4200    2.4300    2.4400    2.4500    2.4600    2.4700
    2.4800    2.4900    2.5000    2.5100    2.5200    2.5300    2.5400    2.5500
    2.5600    2.5700    2.5800    2.5900    2.6000    2.6100    2.6200    2.6300
    2.6400    2.6500    2.6600    2.6700    2.6800    2.6900    2.7000    2.7100
    2.7200    2.7300    2.7400    2.7500    2.7600    2.7700    2.7800    2.7900
    2.8000    2.8100    2.8200    2.8300    2.8400    2.8500    2.8600    2.8700
    2.8800    2.8900    2.9000    2.9100    2.9200    2.9300    2.9400    2.9500
    2.9600    2.9700    2.9800    2.9900    3.0000    3.0100    3.0200    3.0300
    3.0400    3.0500    3.0600    3.0700    3.0800    3.0900    3.1000    3.1100
    3.1200    3.1300    3.1400    3.1500    3.1600    3.1700    3.1800    3.1900
    3.2000    3.2100    3.2200    3.2300    3.2400    3.2500    3.2600    3.2700
    3.2800    3.2900    3.3000    3.3100    3.3200    3.3300    3.3400    3.3500
    3.3600    3.3700    3.3800    3.3900    3.4000    3.4100    3.4200    3.4300
    3.4400    3.4500    3.4600    3.4700    3.4800    3.4900    3.5000    3.5100
    3.5200    3.5300    3.5400    3.5500    3.5600    3.5700    3.5800    3.5900
    3.6000    3.6100    3.6200    3.6300    3.6400    3.6500    3.6600    3.6700
    3.6800    3.6900    3.7000    3.7100    3.7200    3.7300    3.7400    3.7500
    3.7600    3.7700    3.7800    3.7900    3.8000    3.8100    3.8200    3.8300
    3.8400    3.8500    3.8600    3.8700    3.8800    3.8900    3.9000    3.9100
    3.9200    3.9300    3.9400    3.9500    3.9600    3.9700    3.9800    3.9900
    4.0000    4.0100    4.0200    4.0300    4.0400    4.0500    4.0600    4.0700
    4.0800    4.0900    4.1000    4.1100    4.1200    4.1300    4.1400    4.1500
    4.1600    4.1700    4.1800    4.1900    4.2000    4.2100    4.2200    4.2300
    4.2400    4.2500    4.2600    4.2700    4.2800    4.2900    4.3000    4.3100
    4.3200    4.3300    4.3400    4.3500    4.3600    4.3700    4.3800    4.3900
    4.4000    4.4100    4.4200    4.4300    4.4400    4.4500    4.4600    4.4700
    4.4800    4.4900    4.5000    4.5100    4.5200    4.5300    4.5400    4.5500
    4.5600    4.5700    4.5800    4.5900    4.6000    4.6100    4.6200    4.6300
    4.6400    4.6500    4.6600    4.6700    4.6800    4.6900    4.7000    4.7100
    4.7200    4.7300    4.7400    4.7500    4.7600    4.7700    4.7800    4.7900
    4.8000    4.8100    4.8200    4.8300    4.8400    4.8500    4.8600    4.8700
    4.8800    4.8900    4.9000    4.9100    4.9200    4.9300    4.9400    4.9500
    4.9600    4.9700    4.9800    4.9900    5.0000    5.0100    5.0200    5.0300
    5.0400    5.0500    5.0600    5.0700    5.0800    5.0900    5.1000    5.1100
    5.1200    5.1300    5.1400    5.1500    5.1600    5.1700    5.1800    5.1900
    5.2000    5.2100    5.2200    5.2300    5.2400    5.2500    5.2600    5.2700
    5.2800    5.2900    5.3000    5.3100    5.3200    5.3300    5.3400    5.3500
    5.3600    5.3700    5.3800    5.3900    5.4000    5.4100    5.4200    5.4300
    5.4400    5.4500    5.4600    5.4700    5.4800    5.4900    5.5000    5.5100
    5.5200    5.5300    5.5400    5.5500    5.5600    5.5700    5.5800    5.5900
    5.6000    5.6100    5.6200    5.6300    5.6400    5.6500    5.6600    5.6700
    5.6800    5.6900    5.7000    5.7100    5.7200    5.7300    5.7400    5.7500
    5.7600    5.7700    5.7800    5.7900    5.8000    5.8100    5.8200    5.8300
    5.8400    5.8500    5.8600    5.8700    5.8800    5.8900    5.9000    5.9100
    5.9200    5.9300    5.9400    5.9500    5.9600    5.9700    5.9800    5.9900
    6.0000    6.0100
   </PP_R>
   <PP_RAB type="real"  size=" 602" columns="8">
    0.0100    0.0100    0.0100    0.0100    0.0100    0.0100    0.0100    0.0100
    0.0100    0.0100    0.0100    0.0100    0.0100    0.0100    0.0100    0.0100
    0.0100    0.0100    0.0100    0.0100    0.0100    0.0100    0.0100    0.0100
    0.0100    0.0100    0.0100    0.0100    0.0100    0.0100    0.0100    0.0100
    0.0100    0.0100    0.0100    0.0100    0.0100    0.0100    0.0100    0.0100
    0.0100    0.0100    0.0100    0.0100    0.0100    0.0100    0.0100    0.0100
    0.0100    0.0100    0.0100    0.0100    0.0100    0.0100    0.0100    0.0100
    0.0100    0.0100    0.0100    0.0100    0.0100    0.0100    0.0100    0.0100
    0.0100    0.0100    0.0100    0.0100    0.0100    0.0100    0.0100    0.0100
    0.0100    0.0100    0.0100    0.0100    0.0100    0.0100    0.0100    0.0100
    0.0100    0.0100    0.0100    0.0100    0.0100    0.0100    0.0100    0.0100
    0.0100    0.0100    0.0100    0.0100    0.0100    0.0100    0.0100    0.0100
    0.0100    0.0100    0.0100    0.0100    0.0100    0.0100    0.0100    0.0100
    0.0100    0.0100    0.0100    0.0100    0.0100    0.0100    0.0100    0.0100
    0.0100    0.0100    0.0100    0.0100    0.0100    0.0100    0.0100    0.0100
    0.0100    0.0100    0.0100    0.0100    0.0100    0.0100    0.0100    0.0100
    0.0100    0.0100    0.0100    0.0100    0.0100    0.0100    0.0100    0.0100
    0.0100    0.0100    0.0100    0.0100    0.0100    0.0100    0.0100    0.0100
    0.0100    0.0100    0.0100    0.0100    0.0100    0.0100    0.0100    0.0100
    0.0100    0.0100    0.0100    0.0100    0.0100    0.0100    0.0100    0.0100
    0.0100    0.0100    0.0100    0.0100    0.0100    0.0100    0.0100    0.0100
    0.0100    0.0100    0.0100    0.0100    0.0100    0.0100    0.0100    0.0100
    0.0100    0.0100    0.0100    0.0100    0.0100    0.0100    0.0100    0.0100
    0.0100    0.0100    0.0100    0.0100    0.0100    0.0100    0.0100    0.0100
    0.0100    0.0100    0.0100    0.0100    0.0100    0.0100    0.0100    0.0100
    0.0100    0.0100    0.0100    0.0100    0.0100    0.0100    0.0100    0.0100
    0.0100    0.0100    0.0100    0.0100    0.0100    0.0100    0.0100    0.0100
    0.0100    0.0100    0.0100    0.0100    0.0100    0.0100    0.0100    0.0100
    0.0100    0.0100    0.0100    0.0100    0.0100    0.0100    0.0100    0.0100
    0.0100    0.0100    0.0100    0.0100    0.0100    0.0100    0.0100    0.0100
    0.0100    0.0100    0.0100    0.0100    0.0100    0.0100    0.0100    0.0100
    0.0100    0.0100    0.0100    0.0100    0.0100    0.0100    0.0100    0.0100
    0.0100    0.0100    0.0100    0.0100    0.0100    0.0100    0.0100    0.0100
    0.0100    0.0100    0.0100    0.0100    0.0100    0.0100    0.0100    0.0100
    0.0100    0.0100    0.0100    0.0100    0.0100    0.0100    0.0100    0.0100
    0.0100    0.0100    0.0100    0.0100    0.0100    0.0100    0.0100    0.0100
    0.0100    0.0100    0.0100    0.0100    0.0100    0.0100    0.0100    0.0100
    0.0100    0.0100    0.0100    0.0100    0.0100    0.0100    0.0100    0.0100
    0.0100    0.0100    0.0100    0.0100    0.0100    0.0100    0.0100    0.0100
    0.0100    0.0100    0.0100    0.0100    0.0100    0.0100    0.0100    0.0100
    0.0100    0.0100    0.0100    0.0100    0.0100    0.0100    0.0100    0.0100
    0.0100    0.0100    0.0100    0.0100    0.0100    0.0100    0.0100    0.0100
    0.0100    0.0100    0.0100    0.0100    0.0100    0.0100    0.0100    0.0100
    0.0100    0.0100    0.0100    0.0100    0.0100    0.0100    0.0100    0.0100
    0.0100    0.0100    0.0100    0.0100    0.0100    0.0100    0.0100    0.0100
    0.0100    0.0100    0.0100    0.0100    0.0100    0.0100    0.0100    0.0100
    0.0100    0.0100    0.0100    0.0100    0.0100    0.0100    0.0100    0.0100
    0.0100    0.0100    0.0100    0.0100    0.0100    0.0100    0.0100    0.0100
    0.0100    0.0100    0.0100    0.0100    0.0100    0.0100    0.0100    0.0100
    0.0100    0.0100    0.0100    0.0100    0.0100    0.0100    0.0100    0.0100
    0.0100    0.0100    0.0100    0.0100    0.0100    0.0100    0.0100    0.0100
    0.0100    0.0100    0.0100    0.0100    0.0100    0.0100    0.0100    0.0100
    0.0100    0.0100    0.0100    0.0100    0.0100    0.0100    0.0100    0.0100
    0.0100    0.0100    0.0100    0.0100    0.0100    0.0100    0.0100    0.0100
    0.0100    0.0100    0.0100    0.0100    0.0100    0.0100    0.0100    0.0100
    0.0100    0.0100    0.0100    0.0100    0.0100    0.0100    0.0100    0.0100
    0.0100    0.0100    0.0100    0.0100    0.0100    0.0100    0.0100    0.0100
    0.0100    0.0100    0.0100    0.0100    0.0100    0.0100    0.0100    0.0100
    0.0100    0.0100    0.0100    0.0100    0.0100    0.0100    0.0100    0.0100
    0.0100    0.0100    0.0100    0.0100    0.0100    0.0100    0.0100    0.0100
    0.0100    0.0100    0.0100    0.0100    0.0100    0.0100    0.0100    0.0100
    0.0100    0.0100    0.0100    0.0100    0.0100    0.0100    0.0100    0.0100
    0.0100    0.0100    0.0100    0.0100    0.0100    0.0100    0.0100    0.0100
    0.0100    0.0100    0.0100    0.0100    0.0100    0.0100    0.0100    0.0100
    0.0100    0.0100    0.0100    0.0100    0.0100    0.0100    0.0100    0.0100
    0.0100    0.0100    0.0100    0.0100    0.0100    0.0100    0.0100    0.0100
    0.0100    0.0100    0.0100    0.0100    0.0100    0.0100    0.0100    0.0100
    0.0100    0.0100    0.0100    0.0100    0.0100    0.0100    0.0100    0.0100
    0.0100    0.0100    0.0100    0.0100    0.0100    0.0100    0.0100    0.0100
    0.0100    0.0100    0.0100    0.0100    0.0100    0.0100    0.0100    0.0100
    0.0100    0.0100    0.0100    0.0100    0.0100    0.0100    0.0100    0.0100
    0.0100    0.0100    0.0100    0.0100    0.0100    0.0100    0.0100    0.0100
    0.0100    0.0100    0.0100    0.0100    0.0100    0.0100    0.0100    0.0100
    0.0100    0.0100    0.0100    0.0100    0.0100    0.0100    0.0100    0.0100
    0.0100    0.0100    0.0100    0.0100    0.0100    0.0100    0.0100    0.0100
    0.0100    0.0100
   </PP_RAB>
 </PP_MESH>
  <PP_LOCAL type="real"  size=" 602" columns="4">
   -5.3576318818E+00   -1.1482999898E+01   -1.3666812599E+01   -1.3389463228E+01
   -1.2131345027E+01   -1.1181279352E+01   -1.0643041050E+01   -1.0353105268E+01
   -1.0191159121E+01   -1.0094096463E+01   -1.0031093017E+01   -9.9870130032E+00
   -9.9541542989E+00   -9.9283940326E+00   -9.9073876447E+00   -9.8897059068E+00
   -9.8744058209E+00   -9.8608085978E+00   -9.8483799219E+00   -9.8366632181E+00
   -9.8252416557E+00   -9.8137166967E+00   -9.8016967398E+00   -9.7887923463E+00
   -9.7746159812E+00   -9.7587849894E+00   -9.7409268784E+00   -9.7206862553E+00
   -9.6977327689E+00   -9.6717695263E+00   -9.6425414707E+00   -9.6098431961E+00
   -9.5735257245E+00   -9.5335020331E+00   -9.4897504109E+00   -9.4423162244E+00
   -9.3913109519E+00   -9.3369094727E+00   -9.2793445209E+00   -9.2188994898E+00
   -9.1558995967E+00   -9.0907014183E+00   -9.0236819480E+00   -8.9552273888E+00
   -8.8857223142E+00   -8.8155397174E+00   -8.7450323800E+00   -8.6745259762E+00
   -8.6043136255E+00   -8.5346526656E+00   -8.4657630590E+00   -8.3978275840E+00
   -8.3309922465E+00   -8.2653693041E+00   -8.2010399478E+00   -8.1380569841E+00
   -8.0764492762E+00   -8.0162237538E+00   -7.9573698567E+00   -7.8998610678E+00
   -7.8436583760E+00   -7.7887116195E+00   -7.7349615711E+00   -7.6823413946E+00
   -7.6307775197E+00   -7.5801909890E+00   -7.5304982795E+00   -7.4816119537E+00
   -7.4334417020E+00   -7.3858951215E+00   -7.3388786018E+00   -7.2922983033E+00
   -7.2460612187E+00   -7.2000762467E+00   -7.1542553178E+00   -7.1085145239E+00
   -7.0627751588E+00   -7.0169649922E+00   -6.9710189983E+00   -6.9248802304E+00
   -6.8785004661E+00   -6.8318406667E+00   -6.7848712340E+00   -6.7375720594E+00
   -6.6899323683E+00   -6.6419503729E+00   -6.5936327509E+00   -6.5449939780E+00
   -6.4960555416E+00   -6.4468450694E+00   -6.3973954048E+00   -6.3477436606E+00
   -6.2979302799E+00   -6.2479981296E+00   -6.1979916473E+00   -6.1479560911E+00
   -6.0979367760E+00   -6.0479784695E+00   -5.9981248764E+00   -5.9484182065E+00
   -5.8988988307E+00   -5.8496050543E+00   -5.8005729414E+00   -5.7518359243E+00
   -5.7034250422E+00   -5.6553688362E+00   -5.6076933774E+00   -5.5604225184E+00
   -5.5135773487E+00   -5.4671768954E+00   -5.4212380848E+00   -5.3757759669E+00
   -5.3308035572E+00   -5.2863320169E+00   -5.2423710084E+00   -5.1989288251E+00
   -5.1560121686E+00   -5.1136264125E+00   -5.0717758571E+00   -5.0304638963E+00
   -4.9896924940E+00   -4.9494628918E+00   -4.9097755964E+00   -4.8706300865E+00
   -4.8320250758E+00   -4.7939587349E+00   -4.7564284253E+00   -4.7194307539E+00
   -4.6829619076E+00   -4.6470173284E+00   -4.6115917486E+00   -4.5766795662E+00
   -4.5422743518E+00   -4.5083690566E+00   -4.4749563691E+00   -4.4420279008E+00
   -4.4095749007E+00   -4.3775880949E+00   -4.3460571517E+00   -4.3149716930E+00
   -4.2843210863E+00   -4.2540952994E+00   -4.2242845038E+00   -4.1948797068E+00
   -4.1658719068E+00   -4.1372528173E+00   -4.1090143561E+00   -4.0811487510E+00
   -4.0536487629E+00   -4.0265070964E+00   -3.9997171764E+00   -3.9732723063E+00
   -3.9471663130E+00   -3.9213930860E+00   -3.8959467925E+00   -3.8708218176E+00
   -3.8460126310E+00   -3.8215140206E+00   -3.7973207254E+00   -3.7734278508E+00
   -3.7498303734E+00   -3.7265236318E+00   -3.7035028362E+00   -3.6807634729E+00
   -3.6583009462E+00   -3.6361108596E+00   -3.6141887638E+00   -3.5925303534E+00
   -3.5711312866E+00   -3.5499873275E+00   -3.5290942120E+00   -3.5084477577E+00
   -3.4880437566E+00   -3.4678780699E+00   -3.4479465325E+00   -3.4282450378E+00
   -3.4087694315E+00   -3.3895157230E+00   -3.3704797253E+00   -3.3516578060E+00
   -3.3330460662E+00   -3.3146410382E+00   -3.2964391924E+00   -3.2784370305E+00
   -3.2606309650E+00   -3.2430176394E+00   -3.2255938552E+00   -3.2083563756E+00
   -3.1913021460E+00   -3.1744279672E+00   -3.1577310627E+00   -3.1412083905E+00
   -3.1248573394E+00   -3.1086751737E+00   -3.0926593204E+00   -3.0768073062E+00
   -3.0611166048E+00   -3.0455848525E+00   -3.0302095455E+00   -3.0149884438E+00
   -2.9999191995E+00   -2.9849995752E+00   -2.9702273991E+00   -2.9556004317E+00
   -2.9411166456E+00   -2.9267738781E+00   -2.9125701402E+00   -2.8985034276E+00
   -2.8845717291E+00   -2.8707731946E+00   -2.8571058472E+00   -2.8435678948E+00
   -2.8301575056E+00   -2.8168728492E+00   -2.8037122439E+00   -2.7906738899E+00
   -2.7777561472E+00   -2.7649573615E+00   -2.7522758406E+00   -2.7397100638E+00
   -2.7272584018E+00   -2.7149193261E+00   -2.7026913607E+00   -2.6905729277E+00
   -2.6785626464E+00   -2.6666590581E+00   -2.6548607107E+00   -2.6431662831E+00
   -2.6315743577E+00   -2.6200836100E+00   -2.6086927611E+00   -2.5974004412E+00
   -2.5862054405E+00   -2.5751065123E+00   -2.5641023598E+00   -2.5531918507E+00
   -2.5423737715E+00   -2.5316469210E+00   -2.5210102098E+00   -2.5104624685E+00
   -2.5000025818E+00   -2.4896295017E+00   -2.4793421035E+00   -2.4691393480E+00
   -2.4590202277E+00   -2.4489836631E+00   -2.4390286812E+00   -2.4291543153E+00
   -2.4193595311E+00   -2.4096434126E+00   -2.4000050340E+00   -2.3904434061E+00
   -2.3809576617E+00   -2.3715469161E+00   -2.3622102250E+00   -2.3529467620E+00
   -2.3437556839E+00   -2.3346360910E+00   -2.3255871905E+00   -2.3166081811E+00
   -2.3076982074E+00   -2.2988565032E+00   -2.2900823093E+00   -2.2813748147E+00
   -2.2727332735E+00   -2.2641569684E+00   -2.2556451332E+00   -2.2471970360E+00
   -2.2388120013E+00   -2.2304893082E+00   -2.2222282332E+00   -2.2140281420E+00
   -2.2058883594E+00   -2.1978081657E+00   -2.1897869669E+00   -2.1818241208E+00
   -2.1739189461E+00   -2.1660708496E+00   -2.1582792314E+00   -2.1505434552E+00
   -2.1428629181E+00   -2.1352370635E+00   -2.1276653013E+00   -2.1201470152E+00
   -2.1126816900E+00   -2.1052687693E+00   -2.0979076608E+00   -2.0905978492E+00
   -2.0833388165E+00   -2.0761300168E+00   -2.0689709100E+00   -2.0618610221E+00
   -2.0547998471E+00   -2.0477868404E+00   -2.0408215472E+00   -2.0339034920E+00
   -2.0270321763E+00   -2.0202071117E+00   -2.0134278676E+00   -2.0066939840E+00
   -2.0000049661E+00   -1.9933603963E+00   -1.9867598452E+00   -1.9802028648E+00
   -1.9736889964E+00   -1.9672178553E+00   -1.9607890233E+00   -1.9544020578E+00
   -1.9480565578E+00   -1.9417521428E+00   -1.9354884140E+00   -1.9292649370E+00
   -1.9230813610E+00   -1.9169373102E+00   -1.9108323972E+00   -1.9047662198E+00
   -1.8987384478E+00   -1.8927487189E+00   -1.8867966542E+00   -1.8808818913E+00
   -1.8750041078E+00   -1.8691629582E+00   -1.8633580739E+00   -1.8575891262E+00
   -1.8518558014E+00   -1.8461577700E+00   -1.8404946749E+00   -1.8348662158E+00
   -1.8292720883E+00   -1.8237119785E+00   -1.8181855419E+00   -1.8126925009E+00
   -1.8072325619E+00   -1.8018054256E+00   -1.7964107613E+00   -1.7910483090E+00
   -1.7857177871E+00   -1.7804189102E+00   -1.7751513623E+00   -1.7699148961E+00
   -1.7647092435E+00   -1.7595341321E+00   -1.7543892613E+00   -1.7492743927E+00
   -1.7441892720E+00   -1.7391336398E+00   -1.7341072115E+00   -1.7291097532E+00
   -1.7241410258E+00   -1.7192007819E+00   -1.7142887541E+00   -1.7094047090E+00
   -1.7045484236E+00   -1.6997196619E+00   -1.6949181745E+00   -1.6901437250E+00
   -1.6853961070E+00   -1.6806750955E+00   -1.6759804602E+00   -1.6713119582E+00
   -1.6666694002E+00   -1.6620525718E+00   -1.6574612587E+00   -1.6528952200E+00
   -1.6483542726E+00   -1.6438382159E+00   -1.6393468452E+00   -1.6348799403E+00
   -1.6304373037E+00   -1.6260187544E+00   -1.6216240976E+00   -1.6172531342E+00
   -1.6129056500E+00   -1.6085814837E+00   -1.6042804495E+00   -1.6000023615E+00
   -1.5957470145E+00   -1.5915142389E+00   -1.5873038666E+00   -1.5831157204E+00
   -1.5789496179E+00   -1.5748053662E+00   -1.5706828188E+00   -1.5665818067E+00
   -1.5625021610E+00   -1.5584436958E+00   -1.5544062538E+00   -1.5503896841E+00
   -1.5463938257E+00   -1.5424185171E+00   -1.5384635724E+00   -1.5345288634E+00
   -1.5306142365E+00   -1.5267195381E+00   -1.5228446058E+00   -1.5189892804E+00
   -1.5151534325E+00   -1.5113369156E+00   -1.5075395835E+00   -1.5037612739E+00
   -1.5000018507E+00   -1.4962611840E+00   -1.4925391342E+00   -1.4888355618E+00
   -1.4851503067E+00   -1.4814832512E+00   -1.4778342661E+00   -1.4742032186E+00
   -1.4705899753E+00   -1.4669943800E+00   -1.4634163291E+00   -1.4598556957E+00
   -1.4563123530E+00   -1.4527861714E+00   -1.4492770068E+00   -1.4457847587E+00
   -1.4423093062E+00   -1.4388505282E+00   -1.4354083003E+00   -1.4319824866E+00
   -1.4285729910E+00   -1.4251796982E+00   -1.4218024931E+00   -1.4184412571E+00
   -1.4150958599E+00   -1.4117662103E+00   -1.4084521985E+00   -1.4051537143E+00
   -1.4018706463E+00   -1.3986028660E+00   -1.3953502889E+00   -1.3921128101E+00
   -1.3888903249E+00   -1.3856827285E+00   -1.3824898967E+00   -1.3793117470E+00
   -1.3761481809E+00   -1.3729990986E+00   -1.3698644000E+00   -1.3667439700E+00
   -1.3636377215E+00   -1.3605455650E+00   -1.3574674052E+00   -1.3544031467E+00
   -1.3513526846E+00   -1.3483159245E+00   -1.3452927865E+00   -1.3422831796E+00
   -1.3392870130E+00   -1.3363041928E+00   -1.3333346152E+00   -1.3303782101E+00
   -1.3274348910E+00   -1.3245045712E+00   -1.3215871642E+00   -1.3186825686E+00
   -1.3157907108E+00   -1.3129115130E+00   -1.3100448927E+00   -1.3071907671E+00
   -1.3043490478E+00   -1.3015196463E+00   -1.2987024969E+00   -1.2958975209E+00
   -1.2931046395E+00   -1.2903237740E+00   -1.2875548310E+00   -1.2847977455E+00
   -1.2820524462E+00   -1.2793188582E+00   -1.2765969063E+00   -1.2738865115E+00
   -1.2711875894E+00   -1.2685000823E+00   -1.2658239189E+00   -1.2631590275E+00
   -1.2605053366E+00   -1.2578627646E+00   -1.2552312439E+00   -1.2526107142E+00
   -1.2500011073E+00   -1.2474023548E+00   -1.2448143886E+00   -1.2422371259E+00
   -1.2396705129E+00   -1.2371144874E+00   -1.2345689842E+00   -1.2320339384E+00
   -1.2295092837E+00   -1.2269949408E+00   -1.2244908632E+00   -1.2219969889E+00
   -1.2195132559E+00   -1.2170396022E+00   -1.2145759623E+00   -1.2121222652E+00
   -1.2096784647E+00   -1.2072445018E+00   -1.2048203173E+00   -1.2024058521E+00
   -1.2000010425E+00   -1.1976058230E+00   -1.1952201490E+00   -1.1928439639E+00
   -1.1904772115E+00   -1.1881198353E+00   -1.1857717745E+00   -1.1834329667E+00
   -1.1811033693E+00   -1.1787829287E+00   -1.1764715911E+00   -1.1741693027E+00
   -1.1718760064E+00   -1.1695916404E+00   -1.1673161653E+00   -1.1650495300E+00
   -1.1627916833E+00   -1.1605425738E+00   -1.1583021492E+00   -1.1560703458E+00
   -1.1538471284E+00   -1.1516324483E+00   -1.1494262565E+00   -1.1472285043E+00
   -1.1450391427E+00   -1.1428581103E+00   -1.1406853708E+00   -1.1385208795E+00
   -1.1363645899E+00   -1.1342164555E+00   -1.1320764295E+00   -1.1299444574E+00
   -1.1278204957E+00   -1.1257045061E+00   -1.1235964443E+00   -1.1214962659E+00
   -1.1194039264E+00   -1.1173193786E+00   -1.1152425703E+00   -1.1131734701E+00
   -1.1111120358E+00   -1.1090582250E+00   -1.1070119954E+00   -1.1049733046E+00
   -1.1029421000E+00   -1.1009183476E+00   -1.0989020106E+00   -1.0968930484E+00
   -1.0948914208E+00   -1.0928970873E+00   -1.0909100044E+00   -1.0889301253E+00
   -1.0869574215E+00   -1.0849918546E+00   -1.0830333862E+00   -1.0810819776E+00
   -1.0791375905E+00   -1.0772001779E+00   -1.0752697062E+00   -1.0733461435E+00
   -1.0714294529E+00   -1.0695195979E+00   -1.0676165417E+00   -1.0657202477E+00
   -1.0638306668E+00   -1.0619477760E+00   -1.0600715405E+00   -1.0582019255E+00
   -1.0563388959E+00   -1.0544824167E+00   -1.0526324503E+00   -1.0507889550E+00
   -1.0489519072E+00   -1.0471212735E+00   -1.0452970205E+00   -1.0434791149E+00
   -1.0416675233E+00   -1.0398622078E+00   -1.0380631327E+00   -1.0362702737E+00
   -1.0344835989E+00   -1.0327030767E+00   -1.0309286752E+00   -1.0291603626E+00
   -1.0273981016E+00   -1.0256418601E+00   -1.0238916143E+00   -1.0221473338E+00
   -1.0204089883E+00   -1.0186765476E+00   -1.0169499812E+00   -1.0152292535E+00
   -1.0135143339E+00   -1.0118051998E+00   -1.0101018222E+00   -1.0084041722E+00
   -1.0067122210E+00   -1.0050259397E+00   -1.0033452950E+00   -1.0016702558E+00
   -1.0000008015E+00   -9.9833690456E-01
  </PP_LOCAL>
 <PP_NONLOCAL>
   <PP_BETA.1
       type="real"
       size=" 602"
       columns="4"
       index="1"
       angular_momentum="0"
       cutoff_radius_index=" 194"
       cutoff_radius="    1.9300000000E+00" >
    0.0000000000E+00    5.2659478768E-02    1.0524287907E-01    1.5767430618E-01
    2.0987823192E-01    2.6177967566E-01    3.1330438239E-01    3.6437899737E-01
    4.1493123604E-01    4.6489004874E-01    5.1418577933E-01    5.6275031690E-01
    6.1051724013E-01    6.5742195352E-01    7.0340181502E-01    7.4839625472E-01
    7.9234688394E-01    8.3519759485E-01    8.7689464994E-01    9.1738676155E-01
    9.5662516124E-01    9.9456365915E-01    1.0311586933E+00    1.0663693690E+00
    1.1001574891E+00    1.1324875747E+00    1.1633268768E+00    1.1926453806E+00
    1.2204158010E+00    1.2466135709E+00    1.2712168237E+00    1.2942063688E+00
    1.3155656621E+00    1.3352807724E+00    1.3533403426E+00    1.3697355490E+00
    1.3844600573E+00    1.3975099765E+00    1.4088838124E+00    1.4185824205E+00
    1.4266089572E+00    1.4329688342E+00    1.4376696725E+00    1.4407212582E+00
    1.4421355002E+00    1.4419263905E+00    1.4401099669E+00    1.4367042794E+00
    1.4317293561E+00    1.4252071762E+00    1.4171616440E+00    1.4076185683E+00
    1.3966056345E+00    1.3841523938E+00    1.3702902455E+00    1.3550524161E+00
    1.3384739578E+00    1.3205917190E+00    1.3014443505E+00    1.2810722711E+00
    1.2595176722E+00    1.2368244851E+00    1.2130383698E+00    1.1882066945E+00
    1.1623784948E+00    1.1356044554E+00    1.1079368736E+00    1.0794295967E+00
    1.0501379895E+00    1.0201188707E+00    9.8943045317E-01    9.5813224595E-01
    9.2628499264E-01    8.9395057133E-01    8.6119189160E-01    8.2807278240E-01
    7.9465787874E-01    7.6101245743E-01    7.2720232630E-01    6.9329366261E-01
    6.5935285200E-01    6.2544631882E-01    5.9164034813E-01    5.5800090028E-01
    5.2459341861E-01    4.9148263123E-01    4.5873234777E-01    4.2640525229E-01
    3.9456269318E-01    3.6326447160E-01    3.3256862948E-01    3.0253123865E-01
    2.7320619232E-01    2.4464500050E-01    2.1689663786E-01    1.9000725313E-01
    1.6402000363E-01    1.3897493593E-01    1.1490879335E-01    9.1854864594E-02
    6.9842846639E-02    4.8898765875E-02    2.9044876420E-02    1.0299270637E-02