<UPF version="2.0.1">
  <PP_INFO>

 This pseudopotential file has been produced using the code
 ONCVPSP  (Optimized Norm-Conservinng Vanderbilt PSeudopotential)
 scalar-relativistic version 2.1.1, 03/26/2014 by D. R. Hamann
 The code is available through a link at URL www.mat-simresearch.com.
 Documentation with the package provides a full discription of the
 input data below.


 While it is not required under the terms of the GNU GPL, it is
 suggested that you cite D. R. Hamann, Phys. Rev. B 88, 085117 (2013)
 in any publication using these pseudopotentials.


 Copyright 2015 The Regents of the University of California
 
 This work is licensed under the Creative Commons Attribution-ShareAlike 
 4.0 International License. To view a copy of this license, visit 
 http://creativecommons.org/licenses/by-sa/4.0/ or send a letter to 
 Creative Commons, PO Box 1866, Mountain View, CA 94042, USA.
 
 This pseudopotential is part of the Schlipf-Gygi norm-conserving 
 pseudopotential library. Its construction parameters were tuned to 
 reproduce materials of a training set with very high accuracy and 
 should be suitable as a general purpose pseudopotential to treat a 
 variety of different compounds. For details of the construction and 
 testing of the pseudopotential please refer to:
 
 [insert reference to paper here]
 
 We kindly ask that you include this reference in all publications 
 associated to this pseudopotential.


    <PP_INPUTFILE>
# ATOM AND REFERENCE CONFIGURATION
# atsym  z    nc    nv    iexc   psfile
  Ba 56.00     9     4     4      upf
#
#   n    l    f        energy (Ha)
    1    0    2.00
    2    0    2.00
    2    1    6.00
    3    0    2.00
    3    1    6.00
    3    2   10.00
    4    0    2.00
    4    1    6.00
    4    2   10.00
    5    0    2.00
    5    1    6.00
    5    2    1.00
    6    0    1.00
#
# PSEUDOPOTENTIAL AND OPTIMIZATION
# lmax
    3
#
#   l,   rc,     ep,   ncon, nbas, qcut
    0   2.93784  -1.19126    5    8   4.58118
    1   2.93784  -0.64624    5    8   4.80909
    2   2.97309  -0.04970    5    8   5.73962
    3   2.54602   0.14815    5    8   7.53728
#
# LOCAL POTENTIAL
# lloc, lpopt,  rc(5),   dvloc0
    4    5   2.31429      0.00000
#
# VANDERBILT-KLEINMAN-BYLANDER PROJECTORs
# l, nproj, debl
    0    2   1.08879
    1    2   1.60356
    2    2   1.83660
    3    2   1.30997
#
# MODEL CORE CHARGE
# icmod, fcfact
    0   0.00000
#
# LOG DERIVATIVE ANALYSIS
# epsh1, epsh2, depsh
   -5.00    3.00    0.02
#
# OUTPUT GRID
# rlmax, drl
    6.00    0.01
#
# TEST CONFIGURATIONS
# ncnf
    0
# nvcnf
#   n    l    f
    </PP_INPUTFILE>
  </PP_INFO>
  <!--                               -->
  <!-- END OF HUMAN READABLE SECTION -->
  <!--                               -->
    <PP_HEADER
       generated="Generated using ONCVPSP code by D. R. Hamann"
       author="Martin Schlipf and Francois Gygi"
       date="150105"
       comment=""
       element="Ba"
       pseudo_type="NC"
       relativistic="scalar"
       is_ultrasoft="F"
       is_paw="F"
       is_coulomb="F"
       has_so="F"
       has_wfc="F"
       has_gipaw="F"
       core_correction="F"
       functional="PBE"
       z_valence="   10.00"
       total_psenergy="  -2.56143739597E+01"
       rho_cutoff="   6.01000000000E+00"
       l_max="3"
       l_local="-1"
       mesh_size="   602"
       number_of_wfc="0"
       number_of_proj="8"/>
 <PP_MESH>
   <PP_R type="real"  size=" 602" columns="8">
    0.0000    0.0100    0.0200    0.0300    0.0400    0.0500    0.0600    0.0700
    0.0800    0.0900    0.1000    0.1100    0.1200    0.1300    0.1400    0.1500
    0.1600    0.1700    0.1800    0.1900    0.2000    0.2100    0.2200    0.2300
    0.2400    0.2500    0.2600    0.2700    0.2800    0.2900    0.3000    0.3100
    0.3200    0.3300    0.3400    0.3500    0.3600    0.3700    0.3800    0.3900
    0.4000    0.4100    0.4200    0.4300    0.4400    0.4500    0.4600    0.4700
    0.4800    0.4900    0.5000    0.5100    0.5200    0.5300    0.5400    0.5500
    0.5600    0.5700    0.5800    0.5900    0.6000    0.6100    0.6200    0.6300
    0.6400    0.6500    0.6600    0.6700    0.6800    0.6900    0.7000    0.7100
    0.7200    0.7300    0.7400    0.7500    0.7600    0.7700    0.7800    0.7900
    0.8000    0.8100    0.8200    0.8300    0.8400    0.8500    0.8600    0.8700
    0.8800    0.8900    0.9000    0.9100    0.9200    0.9300    0.9400    0.9500
    0.9600    0.9700    0.9800    0.9900    1.0000    1.0100    1.0200    1.0300
    1.0400    1.0500    1.0600    1.0700    1.0800    1.0900    1.1000    1.1100
    1.1200    1.1300    1.1400    1.1500    1.1600    1.1700    1.1800    1.1900
    1.2000    1.2100    1.2200    1.2300    1.2400    1.2500    1.2600    1.2700
    1.2800    1.2900    1.3000    1.3100    1.3200    1.3300    1.3400    1.3500
    1.3600    1.3700    1.3800    1.3900    1.4000    1.4100    1.4200    1.4300
    1.4400    1.4500    1.4600    1.4700    1.4800    1.4900    1.5000    1.5100
    1.5200    1.5300    1.5400    1.5500    1.5600    1.5700    1.5800    1.5900
    1.6000    1.6100    1.6200    1.6300    1.6400    1.6500    1.6600    1.6700
    1.6800    1.6900    1.7000    1.7100    1.7200    1.7300    1.7400    1.7500
    1.7600    1.7700    1.7800    1.7900    1.8000    1.8100    1.8200    1.8300
    1.8400    1.8500    1.8600    1.8700    1.8800    1.8900    1.9000    1.9100
    1.9200    1.9300    1.9400    1.9500    1.9600    1.9700    1.9800    1.9900
    2.0000    2.0100    2.0200    2.0300    2.0400    2.0500    2.0600    2.0700
    2.0800    2.0900    2.1000    2.1100    2.1200    2.1300    2.1400    2.1500
    2.1600    2.1700    2.1800    2.1900    2.2000    2.2100    2.2200    2.2300
    2.2400    2.2500    2.2600    2.2700    2.2800    2.2900    2.3000    2.3100
    2.3200    2.3300    2.3400    2.3500    2.3600    2.3700    2.3800    2.3900
    2.4000    2.4100    2.4200    2.4300    2.4400    2.4500    2.4600    2.4700
    2.4800    2.4900    2.5000    2.5100    2.5200    2.5300    2.5400    2.5500
    2.5600    2.5700    2.5800    2.5900    2.6000    2.6100    2.6200    2.6300
    2.6400    2.6500    2.6600    2.6700    2.6800    2.6900    2.7000    2.7100
    2.7200    2.7300    2.7400    2.7500    2.7600    2.7700    2.7800    2.7900
    2.8000    2.8100    2.8200    2.8300    2.8400    2.8500    2.8600    2.8700
    2.8800    2.8900    2.9000    2.9100    2.9200    2.9300    2.9400    2.9500
    2.9600    2.9700    2.9800    2.9900    3.0000    3.0100    3.0200    3.0300
    3.0400    3.0500    3.0600    3.0700    3.0800    3.0900    3.1000    3.1100
    3.1200    3.1300    3.1400    3.1500    3.1600    3.1700    3.1800    3.1900
    3.2000    3.2100    3.2200    3.2300    3.2400    3.2500    3.2600    3.2700
    3.2800    3.2900    3.3000    3.3100    3.3200    3.3300    3.3400    3.3500
    3.3600    3.3700    3.3800    3.3900    3.4000    3.4100    3.4200    3.4300
    3.4400    3.4500    3.4600    3.4700    3.4800    3.4900    3.5000    3.5100
    3.5200    3.5300    3.5400    3.5500    3.5600    3.5700    3.5800    3.5900
    3.6000    3.6100    3.6200    3.6300    3.6400    3.6500    3.6600    3.6700
    3.6800    3.6900    3.7000    3.7100    3.7200    3.7300    3.7400    3.7500
    3.7600    3.7700    3.7800    3.7900    3.8000    3.8100    3.8200    3.8300
    3.8400    3.8500    3.8600    3.8700    3.8800    3.8900    3.9000    3.9100
    3.9200    3.9300    3.9400    3.9500    3.9600    3.9700    3.9800    3.9900
    4.0000    4.0100    4.0200    4.0300    4.0400    4.0500    4.0600    4.0700
    4.0800    4.0900    4.1000    4.1100    4.1200    4.1300    4.1400    4.1500
    4.1600    4.1700    4.1800    4.1900    4.2000    4.2100    4.2200    4.2300
    4.2400    4.2500    4.2600    4.2700    4.2800    4.2900    4.3000    4.3100
    4.3200    4.3300    4.3400    4.3500    4.3600    4.3700    4.3800    4.3900
    4.4000    4.4100    4.4200    4.4300    4.4400    4.4500    4.4600    4.4700
    4.4800    4.4900    4.5000    4.5100    4.5200    4.5300    4.5400    4.5500
    4.5600    4.5700    4.5800    4.5900    4.6000    4.6100    4.6200    4.6300
    4.6400    4.6500    4.6600    4.6700    4.6800    4.6900    4.7000    4.7100
    4.7200    4.7300    4.7400    4.7500    4.7600    4.7700    4.7800    4.7900
    4.8000    4.8100    4.8200    4.8300    4.8400    4.8500    4.8600    4.8700
    4.8800    4.8900    4.9000    4.9100    4.9200    4.9300    4.9400    4.9500
    4.9600    4.9700    4.9800    4.9900    5.0000    5.0100    5.0200    5.0300
    5.0400    5.0500    5.0600    5.0700    5.0800    5.0900    5.1000    5.1100
    5.1200    5.1300    5.1400    5.1500    5.1600    5.1700    5.1800    5.1900
    5.2000    5.2100    5.2200    5.2300    5.2400    5.2500    5.2600    5.2700
    5.2800    5.2900    5.3000    5.3100    5.3200    5.3300    5.3400    5.3500
    5.3600    5.3700    5.3800    5.3900    5.4000    5.4100    5.4200    5.4300
    5.4400    5.4500    5.4600    5.4700    5.4800    5.4900    5.5000    5.5100
    5.5200    5.5300    5.5400    5.5500    5.5600    5.5700    5.5800    5.5900
    5.6000    5.6100    5.6200    5.6300    5.6400    5.6500    5.6600    5.6700
    5.6800    5.6900    5.7000    5.7100    5.7200    5.7300    5.7400    5.7500
    5.7600    5.7700    5.7800    5.7900    5.8000    5.8100    5.8200    5.8300
    5.8400    5.8500    5.8600    5.8700    5.8800    5.8900    5.9000    5.9100
    5.9200    5.9300    5.9400    5.9500    5.9600    5.9700    5.9800    5.9900
    6.0000    6.0100
   </PP_R>
   <PP_RAB type="real"  size=" 602" columns="8">
    0.0100    0.0100    0.0100    0.0100    0.0100    0.0100    0.0100    0.0100
    0.0100    0.0100    0.0100    0.0100    0.0100    0.0100    0.0100    0.0100
    0.0100    0.0100    0.0100    0.0100    0.0100    0.0100    0.0100    0.0100
    0.0100    0.0100    0.0100    0.0100    0.0100    0.0100    0.0100    0.0100
    0.0100    0.0100    0.0100    0.0100    0.0100    0.0100    0.0100    0.0100
    0.0100    0.0100    0.0100    0.0100    0.0100    0.0100    0.0100    0.0100
    0.0100    0.0100    0.0100    0.0100    0.0100    0.0100    0.0100    0.0100
    0.0100    0.0100    0.0100    0.0100    0.0100    0.0100    0.0100    0.0100
    0.0100    0.0100    0.0100    0.0100    0.0100    0.0100    0.0100    0.0100
    0.0100    0.0100    0.0100    0.0100    0.0100    0.0100    0.0100    0.0100
    0.0100    0.0100    0.0100    0.0100    0.0100    0.0100    0.0100    0.0100
    0.0100    0.0100    0.0100    0.0100    0.0100    0.0100    0.0100    0.0100
    0.0100    0.0100    0.0100    0.0100    0.0100    0.0100    0.0100    0.0100
    0.0100    0.0100    0.0100    0.0100    0.0100    0.0100    0.0100    0.0100
    0.0100    0.0100    0.0100    0.0100    0.0100    0.0100    0.0100    0.0100
    0.0100    0.0100    0.0100    0.0100    0.0100    0.0100    0.0100    0.0100
    0.0100    0.0100    0.0100    0.0100    0.0100    0.0100    0.0100    0.0100
    0.0100    0.0100    0.0100    0.0100    0.0100    0.0100    0.0100    0.0100
    0.0100    0.0100    0.0100    0.0100    0.0100    0.0100    0.0100    0.0100
    0.0100    0.0100    0.0100    0.0100    0.0100    0.0100    0.0100    0.0100
    0.0100    0.0100    0.0100    0.0100    0.0100    0.0100    0.0100    0.0100
    0.0100    0.0100    0.0100    0.0100    0.0100    0.0100    0.0100    0.0100
    0.0100    0.0100    0.0100    0.0100    0.0100    0.0100    0.0100    0.0100
    0.0100    0.0100    0.0100    0.0100    0.0100    0.0100    0.0100    0.0100
    0.0100    0.0100    0.0100    0.0100    0.0100    0.0100    0.0100    0.0100
    0.0100    0.0100    0.0100    0.0100    0.0100    0.0100    0.0100    0.0100
    0.0100    0.0100    0.0100    0.0100    0.0100    0.0100    0.0100    0.0100
    0.0100    0.0100    0.0100    0.0100    0.0100    0.0100    0.0100    0.0100
    0.0100    0.0100    0.0100    0.0100    0.0100    0.0100    0.0100    0.0100
    0.0100    0.0100    0.0100    0.0100    0.0100    0.0100    0.0100    0.0100
    0.0100    0.0100    0.0100    0.0100    0.0100    0.0100    0.0100    0.0100
    0.0100    0.0100    0.0100    0.0100    0.0100    0.0100    0.0100    0.0100
    0.0100    0.0100    0.0100    0.0100    0.0100    0.0100    0.0100    0.0100
    0.0100    0.0100    0.0100    0.0100    0.0100    0.0100    0.0100    0.0100
    0.0100    0.0100    0.0100    0.0100    0.0100    0.0100    0.0100    0.0100
    0.0100    0.0100    0.0100    0.0100    0.0100    0.0100    0.0100    0.0100
    0.0100    0.0100    0.0100    0.0100    0.0100    0.0100    0.0100    0.0100
    0.0100    0.0100    0.0100    0.0100    0.0100    0.0100    0.0100    0.0100
    0.0100    0.0100    0.0100    0.0100    0.0100    0.0100    0.0100    0.0100
    0.0100    0.0100    0.0100    0.0100    0.0100    0.0100    0.0100    0.0100
    0.0100    0.0100    0.0100    0.0100    0.0100    0.0100    0.0100    0.0100
    0.0100    0.0100    0.0100    0.0100    0.0100    0.0100    0.0100    0.0100
    0.0100    0.0100    0.0100    0.0100    0.0100    0.0100    0.0100    0.0100
    0.0100    0.0100    0.0100    0.0100    0.0100    0.0100    0.0100    0.0100
    0.0100    0.0100    0.0100    0.0100    0.0100    0.0100    0.0100    0.0100
    0.0100    0.0100    0.0100    0.0100    0.0100    0.0100    0.0100    0.0100
    0.0100    0.0100    0.0100    0.0100    0.0100    0.0100    0.0100    0.0100
    0.0100    0.0100    0.0100    0.0100    0.0100    0.0100    0.0100    0.0100
    0.0100    0.0100    0.0100    0.0100    0.0100    0.0100    0.0100    0.0100
    0.0100    0.0100    0.0100    0.0100    0.0100    0.0100    0.0100    0.0100
    0.0100    0.0100    0.0100    0.0100    0.0100    0.0100    0.0100    0.0100
    0.0100    0.0100    0.0100    0.0100    0.0100    0.0100    0.0100    0.0100
    0.0100    0.0100    0.0100    0.0100    0.0100    0.0100    0.0100    0.0100
    0.0100    0.0100    0.0100    0.0100    0.0100    0.0100    0.0100    0.0100
    0.0100    0.0100    0.0100    0.0100    0.0100    0.0100    0.0100    0.0100
    0.0100    0.0100    0.0100    0.0100    0.0100    0.0100    0.0100    0.0100
    0.0100    0.0100    0.0100    0.0100    0.0100    0.0100    0.0100    0.0100
    0.0100    0.0100    0.0100    0.0100    0.0100    0.0100    0.0100    0.0100
    0.0100    0.0100    0.0100    0.0100    0.0100    0.0100    0.0100    0.0100
    0.0100    0.0100    0.0100    0.0100    0.0100    0.0100    0.0100    0.0100
    0.0100    0.0100    0.0100    0.0100    0.0100    0.0100    0.0100    0.0100
    0.0100    0.0100    0.0100    0.0100    0.0100    0.0100    0.0100    0.0100
    0.0100    0.0100    0.0100    0.0100    0.0100    0.0100    0.0100    0.0100
    0.0100    0.0100    0.0100    0.0100    0.0100    0.0100    0.0100    0.0100
    0.0100    0.0100    0.0100    0.0100    0.0100    0.0100    0.0100    0.0100
    0.0100    0.0100    0.0100    0.0100    0.0100    0.0100    0.0100    0.0100
    0.0100    0.0100    0.0100    0.0100    0.0100    0.0100    0.0100    0.0100
    0.0100    0.0100    0.0100    0.0100    0.0100    0.0100    0.0100    0.0100
    0.0100    0.0100    0.0100    0.0100    0.0100    0.0100    0.0100    0.0100
    0.0100    0.0100    0.0100    0.0100    0.0100    0.0100    0.0100    0.0100
    0.0100    0.0100    0.0100    0.0100    0.0100    0.0100    0.0100    0.0100
    0.0100    0.0100    0.0100    0.0100    0.0100    0.0100    0.0100    0.0100
    0.0100    0.0100    0.0100    0.0100    0.0100    0.0100    0.0100    0.0100
    0.0100    0.0100    0.0100    0.0100    0.0100    0.0100    0.0100    0.0100
    0.0100    0.0100    0.0100    0.0100    0.0100    0.0100    0.0100    0.0100
    0.0100    0.0100
   </PP_RAB>
 </PP_MESH>
  <PP_LOCAL type="real"  size=" 602" columns="4">
   -1.9241075192E+01   -1.9245113065E+01   -1.9258619213E+01   -1.9279759141E+01
   -1.9306698353E+01   -1.9337253633E+01   -1.9369166769E+01   -1.9400341437E+01
   -1.9429011226E+01   -1.9453829078E+01   -1.9473886383E+01   -1.9488679942E+01
   -1.9498047570E+01   -1.9502090571E+01   -1.9501096464E+01   -1.9495470166E+01
   -1.9485677676E+01   -1.9472203139E+01   -1.9455518428E+01   -1.9436063355E+01
   -1.9414234324E+01   -1.9390379332E+01   -1.9364797409E+01   -1.9337740980E+01
   -1.9309419979E+01   -1.9280006850E+01   -1.9249641740E+01   -1.9218437641E+01
   -1.9186485081E+01   -1.9153856319E+01   -1.9120608983E+01   -1.9086789141E+01
   -1.9052433852E+01   -1.9017573246E+01   -1.8982232168E+01   -1.8946431503E+01
   -1.8910189174E+01   -1.8873520924E+01   -1.8836440872E+01   -1.8798961940E+01
   -1.8761096145E+01   -1.8722854790E+01   -1.8684248599E+01   -1.8645287791E+01
   -1.8605982112E+01   -1.8566340855E+01   -1.8526372849E+01   -1.8486086452E+01
   -1.8445489526E+01   -1.8404589425E+01   -1.8363392974E+01   -1.8321906453E+01
   -1.8280135595E+01   -1.8238085579E+01   -1.8195761021E+01   -1.8153166004E+01
   -1.8110304052E+01   -1.8067178180E+01   -1.8023790876E+01   -1.7980144157E+01
   -1.7936239549E+01   -1.7892078147E+01   -1.7847660614E+01   -1.7802987213E+01
   -1.7758057840E+01   -1.7712872035E+01   -1.7667429013E+01   -1.7621727691E+01
   -1.7575766713E+01   -1.7529544461E+01   -1.7483059092E+01   -1.7436308557E+01
   -1.7389290619E+01   -1.7342002877E+01   -1.7294442786E+01   -1.7246607678E+01
   -1.7198494785E+01   -1.7150101255E+01   -1.7101424173E+01   -1.7052460581E+01
   -1.7003207500E+01   -1.6953661945E+01   -1.6903820948E+01   -1.6853681577E+01
   -1.6803240953E+01   -1.6752496275E+01   -1.6701444835E+01   -1.6650084036E+01
   -1.6598411417E+01   -1.6546424669E+01   -1.6494121656E+01   -1.6441500429E+01
   -1.6388559251E+01   -1.6335296610E+01   -1.6281711240E+01   -1.6227802136E+01
   -1.6173568570E+01   -1.6119010106E+01   -1.6064126614E+01   -1.6008918278E+01
   -1.5953385634E+01   -1.5897529556E+01   -1.5841351272E+01   -1.5784852374E+01
   -1.5728034815E+01   -1.5670900922E+01   -1.5613453440E+01   -1.5555695482E+01
   -1.5497630548E+01   -1.5439262503E+01   -1.5380595624E+01   -1.5321634598E+01
   -1.5262384475E+01   -1.5202850657E+01   -1.5143038928E+01   -1.5082955490E+01
   -1.5022606865E+01   -1.4961999879E+01   -1.4901141757E+01   -1.4840040060E+01
   -1.4778702618E+01   -1.4717137542E+01   -1.4655353327E+01   -1.4593358685E+01
   -1.4531162526E+01   -1.4468774133E+01   -1.4406202959E+01   -1.4343458613E+01
   -1.4280551016E+01   -1.4217490226E+01   -1.4154286410E+01   -1.4090950004E+01
   -1.4027491513E+01   -1.3963921555E+01   -1.3900250922E+01   -1.3836490442E+01
   -1.3772651053E+01   -1.3708743770E+01   -1.3644779628E+01   -1.3580769748E+01
   -1.3516725250E+01   -1.3452657287E+01   -1.3388577011E+01   -1.3324495577E+01
   -1.3260424116E+01   -1.3196373736E+01   -1.3132355519E+01   -1.3068380471E+01
   -1.3004459606E+01   -1.2940603785E+01   -1.2876823896E+01   -1.2813130659E+01
   -1.2749534769E+01   -1.2686046803E+01   -1.2622677218E+01   -1.2559436427E+01
   -1.2496334616E+01   -1.2433382015E+01   -1.2370588509E+01   -1.2307964122E+01
   -1.2245518436E+01   -1.2183261192E+01   -1.2121201700E+01   -1.2059349383E+01
   -1.1997713255E+01   -1.1936302406E+01   -1.1875125532E+01   -1.1814191377E+01
   -1.1753508294E+01   -1.1693084675E+01   -1.1632928501E+01   -1.1573047809E+01
   -1.1513450177E+01   -1.1454143292E+01   -1.1395134292E+01   -1.1336430519E+01
   -1.1278038639E+01   -1.1219965658E+01   -1.1162217735E+01   -1.1104801538E+01
   -1.1047722742E+01   -1.0990987546E+01   -1.0934601262E+01   -1.0878569536E+01
   -1.0822897349E+01   -1.0767589734E+01   -1.0712651384E+01   -1.0658086661E+01
   -1.0603900005E+01   -1.0550095057E+01   -1.0496676032E+01   -1.0443645920E+01
   -1.0391008409E+01   -1.0338766180E+01   -1.0286922153E+01   -1.0235478848E+01
   -1.0184438318E+01   -1.0133802979E+01   -1.0083574074E+01   -1.0033753627E+01
   -9.9843424925E+00   -9.9353418450E+00   -9.8867525274E+00   -9.8385746973E+00
   -9.7908092370E+00   -9.7434555225E+00   -9.6965137323E+00   -9.6499832683E+00
   -9.6038632303E+00   -9.5581531810E+00   -9.5128513375E+00   -9.4679567299E+00
   -9.4234675271E+00   -9.3793816792E+00   -9.3356976287E+00   -9.2924124471E+00
   -9.2495239910E+00   -9.2070294416E+00   -9.1649255367E+00   -9.1232097697E+00
   -9.0818781496E+00   -9.0409273326E+00   -9.0003537632E+00   -8.9601530464E+00
   -8.9203215261E+00   -8.8808546043E+00   -8.8417475949E+00   -8.8029964312E+00
   -8.7645956106E+00   -8.7265402879E+00   -8.6888254943E+00   -8.6514454388E+00
   -8.6143946845E+00   -8.5776677739E+00   -8.5412592379E+00   -8.5051632378E+00
   -8.4693748939E+00   -8.4338892461E+00   -8.3987007322E+00   -8.3638051911E+00
   -8.3291979173E+00   -8.2948739640E+00   -8.2608295531E+00   -8.2270603201E+00
   -8.1935619048E+00   -8.1603308674E+00   -8.1273632028E+00   -8.0946550675E+00
   -8.0622033373E+00   -8.0300043649E+00   -7.9980547403E+00   -7.9663516346E+00
   -7.9348917486E+00   -7.9036720233E+00   -7.8726898997E+00   -7.8419424083E+00
   -7.8114267635E+00   -7.7811406469E+00   -7.7510813905E+00   -7.7212464173E+00
   -7.6916336145E+00   -7.6622405798E+00   -7.6330648946E+00   -7.6041046126E+00
   -7.5753575553E+00   -7.5468214285E+00   -7.5184944107E+00   -7.4903744931E+00
   -7.4624595102E+00   -7.4347477009E+00   -7.4072371696E+00   -7.3799259206E+00
   -7.3528121662E+00   -7.3258941102E+00   -7.2991698806E+00   -7.2726376751E+00
   -7.2462957573E+00   -7.2201423362E+00   -7.1941756121E+00   -7.1683938759E+00
   -7.1427953790E+00   -7.1173783479E+00   -7.0921410699E+00   -7.0670818147E+00
   -7.0421988433E+00   -7.0174904268E+00   -6.9929548431E+00   -6.9685903648E+00
   -6.9443952641E+00   -6.9203678152E+00   -6.8965062914E+00   -6.8728089351E+00
   -6.8492740524E+00   -6.8258999533E+00   -6.8026848898E+00   -6.7796270707E+00
   -6.7567250434E+00   -6.7339772036E+00   -6.7113817847E+00   -6.6889373489E+00
   -6.6666424831E+00   -6.6444956832E+00   -6.6224953760E+00   -6.6006402433E+00
   -6.5789288584E+00   -6.5573597193E+00   -6.5359314373E+00   -6.5146427259E+00
   -6.4934922270E+00   -6.4724784683E+00   -6.4516002383E+00   -6.4308562607E+00
   -6.4102452173E+00   -6.3897657325E+00   -6.3694166814E+00   -6.3491968285E+00
   -6.3291048823E+00   -6.3091396099E+00   -6.2892999089E+00   -6.2695846009E+00
   -6.2499924259E+00   -6.2305222724E+00   -6.2111730644E+00   -6.1919436779E+00
   -6.1728328901E+00   -6.1538396910E+00   -6.1349630344E+00   -6.1162018483E+00
   -6.0975549510E+00   -6.0790214155E+00   -6.0606002295E+00   -6.0422903706E+00
   -6.0240907014E+00   -6.0060003609E+00   -5.9880183746E+00   -5.9701437646E+00
   -5.9523754495E+00   -5.9347126095E+00   -5.9171543149E+00   -5.8996996355E+00
   -5.8823475320E+00   -5.8650972276E+00   -5.8479478355E+00   -5.8308984693E+00
   -5.8139481402E+00   -5.7970960943E+00   -5.7803414935E+00   -5.7636834924E+00
   -5.7471211569E+00   -5.7306537416E+00   -5.7142804604E+00   -5.6980005072E+00
   -5.6818130057E+00   -5.6657172059E+00   -5.6497123767E+00   -5.6337977494E+00
   -5.6179725088E+00   -5.6022358884E+00   -5.5865872144E+00   -5.5710257537E+00
   -5.5555507553E+00   -5.5401614260E+00   -5.5248571502E+00   -5.5096372287E+00
   -5.4945009627E+00   -5.4794475692E+00   -5.4644764452E+00   -5.4495869394E+00
   -5.4347783853E+00   -5.4200500686E+00   -5.4054013342E+00   -5.3908315975E+00
   -5.3763402229E+00   -5.3619265691E+00   -5.3475899204E+00   -5.3333297583E+00
   -5.3191454769E+00   -5.3050364703E+00   -5.2910020776E+00   -5.2770417248E+00
   -5.2631548733E+00   -5.2493409455E+00   -5.2355993583E+00   -5.2219294566E+00
   -5.2083307734E+00   -5.1948027581E+00   -5.1813448598E+00   -5.1679564851E+00
   -5.1546370903E+00   -5.1413861977E+00   -5.1282032821E+00   -5.1150878184E+00
   -5.1020392096E+00   -5.0890570079E+00   -5.0761407274E+00   -5.0632898675E+00
   -5.0505039153E+00   -5.0377823134E+00   -5.0251246565E+00   -5.0125304674E+00
   -4.9999992688E+00   -4.9875305505E+00   -4.9751238258E+00   -4.9627786903E+00
   -4.9504946893E+00   -4.9382713675E+00   -4.9261082226E+00   -4.9140048248E+00
   -4.9019607746E+00   -4.8899756384E+00   -4.8780489822E+00   -4.8661803155E+00
   -4.8543692530E+00   -4.8426154036E+00   -4.8309183541E+00   -4.8192776907E+00
   -4.8076929388E+00   -4.7961637449E+00   -4.7846897309E+00   -4.7732705026E+00
   -4.7619056657E+00   -4.7505947650E+00   -4.7393374674E+00   -4.7281334116E+00
   -4.7169822215E+00   -4.7058835215E+00   -4.6948368790E+00   -4.6838419708E+00
   -4.6728984557E+00   -4.6620059753E+00   -4.6511641715E+00   -4.6403726376E+00
   -4.6296310500E+00   -4.6189390915E+00   -4.6082964204E+00   -4.5977026950E+00
   -4.5871575380E+00   -4.5766606160E+00   -4.5662116385E+00   -4.5558102799E+00
   -4.5454562143E+00   -4.5351490967E+00   -4.5248885753E+00   -4.5146743889E+00
   -4.5045062271E+00   -4.4943837792E+00   -4.4843067348E+00   -4.4742747180E+00
   -4.4642874969E+00   -4.4543447762E+00   -4.4444462597E+00   -4.4345916515E+00
   -4.4247806136E+00   -4.4150128761E+00   -4.4052881810E+00   -4.3956062460E+00
   -4.3859667887E+00   -4.3763695127E+00   -4.3668141029E+00   -4.3573003399E+00
   -4.3478279545E+00   -4.3383966775E+00   -4.3290062400E+00   -4.3196563266E+00
   -4.3103467068E+00   -4.3010771405E+00   -4.2918473712E+00   -4.2826571423E+00
   -4.2735061853E+00   -4.2643942085E+00   -4.2553210164E+00   -4.2462863642E+00
   -4.2372900074E+00   -4.2283317013E+00   -4.2194111666E+00   -4.2105281743E+00
   -4.2016825165E+00   -4.1928739601E+00   -4.1841022717E+00   -4.1753672182E+00
   -4.1666685145E+00   -4.1580059825E+00   -4.1493794060E+00   -4.1407885627E+00
   -4.1322332301E+00   -4.1237131773E+00   -4.1152281438E+00   -4.1067779656E+00
   -4.0983624307E+00   -4.0899813271E+00   -4.0816344427E+00   -4.0733215470E+00
   -4.0650424123E+00   -4.0567968737E+00   -4.0485847291E+00   -4.0404057764E+00
   -4.0322598133E+00   -4.0241466137E+00   -4.0160659729E+00   -4.0080177289E+00
   -4.0000016887E+00   -3.9920176598E+00   -3.9840654494E+00   -3.9761448390E+00
   -3.9682556381E+00   -3.9603976907E+00   -3.9525708130E+00   -3.9447748213E+00
   -3.9370095318E+00   -3.9292747371E+00   -3.9215702523E+00   -3.9138959308E+00
   -3.9062515973E+00   -3.8986370766E+00   -3.8910521936E+00   -3.8834967553E+00
   -3.8759705740E+00   -3.8684735156E+00   -3.8610054132E+00   -3.8535660997E+00
   -3.8461554081E+00   -3.8387731627E+00   -3.8314191657E+00   -3.8240932986E+00
   -3.8167954020E+00   -3.8095253166E+00   -3.8022828834E+00   -3.7950679430E+00
   -3.7878802918E+00   -3.7807198181E+00   -3.7735863735E+00   -3.7664798063E+00
   -3.7593999647E+00   -3.7523466968E+00   -3.7453198225E+00   -3.7383192033E+00
   -3.7313447135E+00   -3.7243962084E+00   -3.7174735433E+00   -3.7105765733E+00
   -3.7037051445E+00   -3.6968590859E+00   -3.6900382961E+00   -3.6832426372E+00
   -3.6764719712E+00   -3.6697261600E+00   -3.6630050656E+00   -3.6563085177E+00
   -3.6496364024E+00   -3.6429886008E+00   -3.6363649814E+00   -3.6297654126E+00
   -3.6231897629E+00   -3.6166378932E+00   -3.6101096439E+00   -3.6036049258E+00
   -3.5971236136E+00   -3.5906655819E+00   -3.5842307051E+00   -3.5778188578E+00
   -3.5714298916E+00   -3.5650636869E+00   -3.5587201441E+00   -3.5523991438E+00
   -3.5461005662E+00   -3.5398242919E+00   -3.5335702012E+00   -3.5273381403E+00
   -3.5211280205E+00   -3.5149397355E+00   -3.5087731713E+00   -3.5026282138E+00
   -3.4965047491E+00   -3.4904026620E+00   -3.4843218002E+00   -3.4782620942E+00
   -3.4722234356E+00   -3.4662057154E+00   -3.4602088250E+00   -3.4542326558E+00
   -3.4482770929E+00   -3.4423420005E+00   -3.4364273087E+00   -3.4305329139E+00
   -3.4246587125E+00   -3.4188046007E+00   -3.4129704750E+00   -3.4071562243E+00
   -3.4013617215E+00   -3.3955868995E+00   -3.3898316594E+00   -3.3840959024E+00
   -3.3783795297E+00   -3.3726824424E+00   -3.3670045360E+00   -3.3613456858E+00
   -3.3557058297E+00   -3.3500848735E+00   -3.3444827231E+00   -3.3388992841E+00
   -3.3333344625E+00   -3.3277881632E+00
  </PP_LOCAL>
 <PP_NONLOCAL>
   <PP_BETA.1
       type="real"
       size=" 602"
       columns="4"
       index="1"
       angular_momentum="0"
       cutoff_radius_index=" 302"
       cutoff_radius="    3.0100000000E+00" >
    0.0000000000E+00   -2.8986019835E-02   -5.7959513284E-02   -8.6907939263E-02
   -1.1581872739E-01   -1.4467926353E-01   -1.7347687570E-01   -2.0219882023E-01
   -2.3083226842E-01   -2.5936429376E-01   -2.8778185973E-01   -3.1607180833E-01
   -3.4422084934E-01   -3.7221555055E-01   -4.0004232876E-01   -4.2768744198E-01
   -4.5513698252E-01   -4.8237687134E-01   -5.0939285354E-01   -5.3617049514E-01
   -5.6269518111E-01   -5.8895211478E-01   -6.1492631867E-01   -6.4060263669E-01
   -6.6596573785E-01   -6.9100012141E-01   -7.1569012357E-01   -7.4001992569E-01
   -7.6397356400E-01   -7.8753494089E-01   -8.1068783770E-01   -8.3341592907E-01
   -8.5570279883E-01   -8.7753195720E-01   -8.9888685981E-01   -9.1975092778E-01
   -9.4010756963E-01   -9.5994020376E-01   -9.7923228366E-01   -9.9796732282E-01
   -1.0161289218E+00   -1.0337007961E+00   -1.0506668053E+00   -1.0670109831E+00
   -1.0827175684E+00   -1.0977710370E+00   -1.1121561341E+00   -1.1258579078E+00
   -1.1388617430E+00   -1.1511533946E+00   -1.1627190238E+00   -1.1735452335E+00
   -1.1836191004E+00   -1.1929282128E+00   -1.2014607081E+00   -1.2092052980E+00
   -1.2161513200E+00   -1.2222887517E+00   -1.2276082660E+00   -1.2321012410E+00
   -1.2357598184E+00   -1.2385769116E+00   -1.2405462517E+00   -1.2416624153E+00
   -1.2419208407E+00   -1.2413178753E+00   -1.2398507893E+00   -1.2375177976E+00
   -1.2343180874E+00   -1.2302518475E+00   -1.2253202750E+00   -1.2195255974E+00
   -1.2128710853E+00   -1.2053610764E+00   -1.1970009803E+00   -1.1877972866E+00
   -1.1777575743E+00   -1.1668905167E+00   -1.1552058841E+00   -1.1427145448E+00
   -1.1294284627E+00   -1.1153606933E+00   -1.1005253757E+00   -1.0849377259E+00
   -1.0686140227E+00   -1.0515715937E+00   -1.0338287990E+00   -1.0154050113E+00