<UPF version="2.0.1">
  <PP_INFO>

 This pseudopotential file has been produced using the code
 ONCVPSP  (Optimized Norm-Conservinng Vanderbilt PSeudopotential)
 scalar-relativistic version 2.1.1, 03/26/2014 by D. R. Hamann
 The code is available through a link at URL www.mat-simresearch.com.
 Documentation with the package provides a full discription of the
 input data below.


 While it is not required under the terms of the GNU GPL, it is
 suggested that you cite D. R. Hamann, Phys. Rev. B 88, 085117 (2013)
 in any publication using these pseudopotentials.


 Copyright 2015 The Regents of the University of California
 
 This work is licensed under the Creative Commons Attribution-ShareAlike 
 4.0 International License. To view a copy of this license, visit 
 http://creativecommons.org/licenses/by-sa/4.0/ or send a letter to 
 Creative Commons, PO Box 1866, Mountain View, CA 94042, USA.
 
 This pseudopotential is part of the Schlipf-Gygi norm-conserving 
 pseudopotential library. Its construction parameters were tuned to 
 reproduce materials of a training set with very high accuracy and 
 should be suitable as a general purpose pseudopotential to treat a 
 variety of different compounds. For details of the construction and 
 testing of the pseudopotential please refer to:
 
 [insert reference to paper here]
 
 We kindly ask that you include this reference in all publications 
 associated to this pseudopotential.


    <PP_INPUTFILE>
# ATOM AND REFERENCE CONFIGURATION
# atsym  z    nc    nv    iexc   psfile
  Br 35.00     6     2     4      upf
#
#   n    l    f        energy (Ha)
    1    0    2.00
    2    0    2.00
    2    1    6.00
    3    0    2.00
    3    1    6.00
    3    2   10.00
    4    0    2.00
    4    1    5.00
#
# PSEUDOPOTENTIAL AND OPTIMIZATION
# lmax
    2
#
#   l,   rc,     ep,   ncon, nbas, qcut
    0   2.49793  -0.73993    5    8   5.10687
    1   2.49793  -0.28884    5    8   4.46675
    2   2.49793   0.09432    5    8   4.91674
#
# LOCAL POTENTIAL
# lloc, lpopt,  rc(5),   dvloc0
    4    5   2.24365      0.00000
#
# VANDERBILT-KLEINMAN-BYLANDER PROJECTORs
# l, nproj, debl
    0    2   1.26029
    1    2   1.41324
    2    2   1.05278
#
# MODEL CORE CHARGE
# icmod, fcfact
    0   0.00000
#
# LOG DERIVATIVE ANALYSIS
# epsh1, epsh2, depsh
   -5.00    3.00    0.02
#
# OUTPUT GRID
# rlmax, drl
    6.00    0.01
#
# TEST CONFIGURATIONS
# ncnf
    0
# nvcnf
#   n    l    f
    </PP_INPUTFILE>
  </PP_INFO>
  <!--                               -->
  <!-- END OF HUMAN READABLE SECTION -->
  <!--                               -->
    <PP_HEADER
       generated="Generated using ONCVPSP code by D. R. Hamann"
       author="Martin Schlipf and Francois Gygi"
       date="150105"
       comment=""
       element="Br"
       pseudo_type="NC"
       relativistic="scalar"
       is_ultrasoft="F"
       is_paw="F"
       is_coulomb="F"
       has_so="F"
       has_wfc="F"
       has_gipaw="F"
       core_correction="F"
       functional="PBE"
       z_valence="    7.00"
       total_psenergy="  -1.34260814943E+01"
       rho_cutoff="   6.01000000000E+00"
       l_max="2"
       l_local="-1"
       mesh_size="   602"
       number_of_wfc="0"
       number_of_proj="6"/>
 <PP_MESH>
   <PP_R type="real"  size=" 602" columns="8">
    0.0000    0.0100    0.0200    0.0300    0.0400    0.0500    0.0600    0.0700
    0.0800    0.0900    0.1000    0.1100    0.1200    0.1300    0.1400    0.1500
    0.1600    0.1700    0.1800    0.1900    0.2000    0.2100    0.2200    0.2300
    0.2400    0.2500    0.2600    0.2700    0.2800    0.2900    0.3000    0.3100
    0.3200    0.3300    0.3400    0.3500    0.3600    0.3700    0.3800    0.3900
    0.4000    0.4100    0.4200    0.4300    0.4400    0.4500    0.4600    0.4700
    0.4800    0.4900    0.5000    0.5100    0.5200    0.5300    0.5400    0.5500
    0.5600    0.5700    0.5800    0.5900    0.6000    0.6100    0.6200    0.6300
    0.6400    0.6500    0.6600    0.6700    0.6800    0.6900    0.7000    0.7100
    0.7200    0.7300    0.7400    0.7500    0.7600    0.7700    0.7800    0.7900
    0.8000    0.8100    0.8200    0.8300    0.8400    0.8500    0.8600    0.8700
    0.8800    0.8900    0.9000    0.9100    0.9200    0.9300    0.9400    0.9500
    0.9600    0.9700    0.9800    0.9900    1.0000    1.0100    1.0200    1.0300
    1.0400    1.0500    1.0600    1.0700    1.0800    1.0900    1.1000    1.1100
    1.1200    1.1300    1.1400    1.1500    1.1600    1.1700    1.1800    1.1900
    1.2000    1.2100    1.2200    1.2300    1.2400    1.2500    1.2600    1.2700
    1.2800    1.2900    1.3000    1.3100    1.3200    1.3300    1.3400    1.3500
    1.3600    1.3700    1.3800    1.3900    1.4000    1.4100    1.4200    1.4300
    1.4400    1.4500    1.4600    1.4700    1.4800    1.4900    1.5000    1.5100
    1.5200    1.5300    1.5400    1.5500    1.5600    1.5700    1.5800    1.5900
    1.6000    1.6100    1.6200    1.6300    1.6400    1.6500    1.6600    1.6700
    1.6800    1.6900    1.7000    1.7100    1.7200    1.7300    1.7400    1.7500
    1.7600    1.7700    1.7800    1.7900    1.8000    1.8100    1.8200    1.8300
    1.8400    1.8500    1.8600    1.8700    1.8800    1.8900    1.9000    1.9100
    1.9200    1.9300    1.9400    1.9500    1.9600    1.9700    1.9800    1.9900
    2.0000    2.0100    2.0200    2.0300    2.0400    2.0500    2.0600    2.0700
    2.0800    2.0900    2.1000    2.1100    2.1200    2.1300    2.1400    2.1500
    2.1600    2.1700    2.1800    2.1900    2.2000    2.2100    2.2200    2.2300
    2.2400    2.2500    2.2600    2.2700    2.2800    2.2900    2.3000    2.3100
    2.3200    2.3300    2.3400    2.3500    2.3600    2.3700    2.3800    2.3900
    2.4000    2.4100    2.4200    2.4300    2.4400    2.4500    2.4600    2.4700
    2.4800    2.4900    2.5000    2.5100    2.5200    2.5300    2.5400    2.5500
    2.5600    2.5700    2.5800    2.5900    2.6000    2.6100    2.6200    2.6300
    2.6400    2.6500    2.6600    2.6700    2.6800    2.6900    2.7000    2.7100
    2.7200    2.7300    2.7400    2.7500    2.7600    2.7700    2.7800    2.7900
    2.8000    2.8100    2.8200    2.8300    2.8400    2.8500    2.8600    2.8700
    2.8800    2.8900    2.9000    2.9100    2.9200    2.9300    2.9400    2.9500
    2.9600    2.9700    2.9800    2.9900    3.0000    3.0100    3.0200    3.0300
    3.0400    3.0500    3.0600    3.0700    3.0800    3.0900    3.1000    3.1100
    3.1200    3.1300    3.1400    3.1500    3.1600    3.1700    3.1800    3.1900
    3.2000    3.2100    3.2200    3.2300    3.2400    3.2500    3.2600    3.2700
    3.2800    3.2900    3.3000    3.3100    3.3200    3.3300    3.3400    3.3500
    3.3600    3.3700    3.3800    3.3900    3.4000    3.4100    3.4200    3.4300
    3.4400    3.4500    3.4600    3.4700    3.4800    3.4900    3.5000    3.5100
    3.5200    3.5300    3.5400    3.5500    3.5600    3.5700    3.5800    3.5900
    3.6000    3.6100    3.6200    3.6300    3.6400    3.6500    3.6600    3.6700
    3.6800    3.6900    3.7000    3.7100    3.7200    3.7300    3.7400    3.7500
    3.7600    3.7700    3.7800    3.7900    3.8000    3.8100    3.8200    3.8300
    3.8400    3.8500    3.8600    3.8700    3.8800    3.8900    3.9000    3.9100
    3.9200    3.9300    3.9400    3.9500    3.9600    3.9700    3.9800    3.9900
    4.0000    4.0100    4.0200    4.0300    4.0400    4.0500    4.0600    4.0700
    4.0800    4.0900    4.1000    4.1100    4.1200    4.1300    4.1400    4.1500
    4.1600    4.1700    4.1800    4.1900    4.2000    4.2100    4.2200    4.2300
    4.2400    4.2500    4.2600    4.2700    4.2800    4.2900    4.3000    4.3100
    4.3200    4.3300    4.3400    4.3500    4.3600    4.3700    4.3800    4.3900
    4.4000    4.4100    4.4200    4.4300    4.4400    4.4500    4.4600    4.4700
    4.4800    4.4900    4.5000    4.5100    4.5200    4.5300    4.5400    4.5500
    4.5600    4.5700    4.5800    4.5900    4.6000    4.6100    4.6200    4.6300
    4.6400    4.6500    4.6600    4.6700    4.6800    4.6900    4.7000    4.7100
    4.7200    4.7300    4.7400    4.7500    4.7600    4.7700    4.7800    4.7900
    4.8000    4.8100    4.8200    4.8300    4.8400    4.8500    4.8600    4.8700
    4.8800    4.8900    4.9000    4.9100    4.9200    4.9300    4.9400    4.9500
    4.9600    4.9700    4.9800    4.9900    5.0000    5.0100    5.0200    5.0300
    5.0400    5.0500    5.0600    5.0700    5.0800    5.0900    5.1000    5.1100
    5.1200    5.1300    5.1400    5.1500    5.1600    5.1700    5.1800    5.1900
    5.2000    5.2100    5.2200    5.2300    5.2400    5.2500    5.2600    5.2700
    5.2800    5.2900    5.3000    5.3100    5.3200    5.3300    5.3400    5.3500
    5.3600    5.3700    5.3800    5.3900    5.4000    5.4100    5.4200    5.4300
    5.4400    5.4500    5.4600    5.4700    5.4800    5.4900    5.5000    5.5100
    5.5200    5.5300    5.5400    5.5500    5.5600    5.5700    5.5800    5.5900
    5.6000    5.6100    5.6200    5.6300    5.6400    5.6500    5.6600    5.6700
    5.6800    5.6900    5.7000    5.7100    5.7200    5.7300    5.7400    5.7500
    5.7600    5.7700    5.7800    5.7900    5.8000    5.8100    5.8200    5.8300
    5.8400    5.8500    5.8600    5.8700    5.8800    5.8900    5.9000    5.9100
    5.9200    5.9300    5.9400    5.9500    5.9600    5.9700    5.9800    5.9900
    6.0000    6.0100
   </PP_R>
   <PP_RAB type="real"  size=" 602" columns="8">
    0.0100    0.0100    0.0100    0.0100    0.0100    0.0100    0.0100    0.0100
    0.0100    0.0100    0.0100    0.0100    0.0100    0.0100    0.0100    0.0100
    0.0100    0.0100    0.0100    0.0100    0.0100    0.0100    0.0100    0.0100
    0.0100    0.0100    0.0100    0.0100    0.0100    0.0100    0.0100    0.0100
    0.0100    0.0100    0.0100    0.0100    0.0100    0.0100    0.0100    0.0100
    0.0100    0.0100    0.0100    0.0100    0.0100    0.0100    0.0100    0.0100
    0.0100    0.0100    0.0100    0.0100    0.0100    0.0100    0.0100    0.0100
    0.0100    0.0100    0.0100    0.0100    0.0100    0.0100    0.0100    0.0100
    0.0100    0.0100    0.0100    0.0100    0.0100    0.0100    0.0100    0.0100
    0.0100    0.0100    0.0100    0.0100    0.0100    0.0100    0.0100    0.0100
    0.0100    0.0100    0.0100    0.0100    0.0100    0.0100    0.0100    0.0100
    0.0100    0.0100    0.0100    0.0100    0.0100    0.0100    0.0100    0.0100
    0.0100    0.0100    0.0100    0.0100    0.0100    0.0100    0.0100    0.0100
    0.0100    0.0100    0.0100    0.0100    0.0100    0.0100    0.0100    0.0100
    0.0100    0.0100    0.0100    0.0100    0.0100    0.0100    0.0100    0.0100
    0.0100    0.0100    0.0100    0.0100    0.0100    0.0100    0.0100    0.0100
    0.0100    0.0100    0.0100    0.0100    0.0100    0.0100    0.0100    0.0100
    0.0100    0.0100    0.0100    0.0100    0.0100    0.0100    0.0100    0.0100
    0.0100    0.0100    0.0100    0.0100    0.0100    0.0100    0.0100    0.0100
    0.0100    0.0100    0.0100    0.0100    0.0100    0.0100    0.0100    0.0100
    0.0100    0.0100    0.0100    0.0100    0.0100    0.0100    0.0100    0.0100
    0.0100    0.0100    0.0100    0.0100    0.0100    0.0100    0.0100    0.0100
    0.0100    0.0100    0.0100    0.0100    0.0100    0.0100    0.0100    0.0100
    0.0100    0.0100    0.0100    0.0100    0.0100    0.0100    0.0100    0.0100
    0.0100    0.0100    0.0100    0.0100    0.0100    0.0100    0.0100    0.0100
    0.0100    0.0100    0.0100    0.0100    0.0100    0.0100    0.0100    0.0100
    0.0100    0.0100    0.0100    0.0100    0.0100    0.0100    0.0100    0.0100
    0.0100    0.0100    0.0100    0.0100    0.0100    0.0100    0.0100    0.0100
    0.0100    0.0100    0.0100    0.0100    0.0100    0.0100    0.0100    0.0100
    0.0100    0.0100    0.0100    0.0100    0.0100    0.0100    0.0100    0.0100
    0.0100    0.0100    0.0100    0.0100    0.0100    0.0100    0.0100    0.0100
    0.0100    0.0100    0.0100    0.0100    0.0100    0.0100    0.0100    0.0100
    0.0100    0.0100    0.0100    0.0100    0.0100    0.0100    0.0100    0.0100
    0.0100    0.0100    0.0100    0.0100    0.0100    0.0100    0.0100    0.0100
    0.0100    0.0100    0.0100    0.0100    0.0100    0.0100    0.0100    0.0100
    0.0100    0.0100    0.0100    0.0100    0.0100    0.0100    0.0100    0.0100
    0.0100    0.0100    0.0100    0.0100    0.0100    0.0100    0.0100    0.0100
    0.0100    0.0100    0.0100    0.0100    0.0100    0.0100    0.0100    0.0100
    0.0100    0.0100    0.0100    0.0100    0.0100    0.0100    0.0100    0.0100
    0.0100    0.0100    0.0100    0.0100    0.0100    0.0100    0.0100    0.0100
    0.0100    0.0100    0.0100    0.0100    0.0100    0.0100    0.0100    0.0100
    0.0100    0.0100    0.0100    0.0100    0.0100    0.0100    0.0100    0.0100
    0.0100    0.0100    0.0100    0.0100    0.0100    0.0100    0.0100    0.0100
    0.0100    0.0100    0.0100    0.0100    0.0100    0.0100    0.0100    0.0100
    0.0100    0.0100    0.0100    0.0100    0.0100    0.0100    0.0100    0.0100
    0.0100    0.0100    0.0100    0.0100    0.0100    0.0100    0.0100    0.0100
    0.0100    0.0100    0.0100    0.0100    0.0100    0.0100    0.0100    0.0100
    0.0100    0.0100    0.0100    0.0100    0.0100    0.0100    0.0100    0.0100
    0.0100    0.0100    0.0100    0.0100    0.0100    0.0100    0.0100    0.0100
    0.0100    0.0100    0.0100    0.0100    0.0100    0.0100    0.0100    0.0100
    0.0100    0.0100    0.0100    0.0100    0.0100    0.0100    0.0100    0.0100
    0.0100    0.0100    0.0100    0.0100    0.0100    0.0100    0.0100    0.0100
    0.0100    0.0100    0.0100    0.0100    0.0100    0.0100    0.0100    0.0100
    0.0100    0.0100    0.0100    0.0100    0.0100    0.0100    0.0100    0.0100
    0.0100    0.0100    0.0100    0.0100    0.0100    0.0100    0.0100    0.0100
    0.0100    0.0100    0.0100    0.0100    0.0100    0.0100    0.0100    0.0100
    0.0100    0.0100    0.0100    0.0100    0.0100    0.0100    0.0100    0.0100
    0.0100    0.0100    0.0100    0.0100    0.0100    0.0100    0.0100    0.0100
    0.0100    0.0100    0.0100    0.0100    0.0100    0.0100    0.0100    0.0100
    0.0100    0.0100    0.0100    0.0100    0.0100    0.0100    0.0100    0.0100
    0.0100    0.0100    0.0100    0.0100    0.0100    0.0100    0.0100    0.0100
    0.0100    0.0100    0.0100    0.0100    0.0100    0.0100    0.0100    0.0100
    0.0100    0.0100    0.0100    0.0100    0.0100    0.0100    0.0100    0.0100
    0.0100    0.0100    0.0100    0.0100    0.0100    0.0100    0.0100    0.0100
    0.0100    0.0100    0.0100    0.0100    0.0100    0.0100    0.0100    0.0100
    0.0100    0.0100    0.0100    0.0100    0.0100    0.0100    0.0100    0.0100
    0.0100    0.0100    0.0100    0.0100    0.0100    0.0100    0.0100    0.0100
    0.0100    0.0100    0.0100    0.0100    0.0100    0.0100    0.0100    0.0100
    0.0100    0.0100    0.0100    0.0100    0.0100    0.0100    0.0100    0.0100
    0.0100    0.0100    0.0100    0.0100    0.0100    0.0100    0.0100    0.0100
    0.0100    0.0100    0.0100    0.0100    0.0100    0.0100    0.0100    0.0100
    0.0100    0.0100    0.0100    0.0100    0.0100    0.0100    0.0100    0.0100
    0.0100    0.0100    0.0100    0.0100    0.0100    0.0100    0.0100    0.0100
    0.0100    0.0100    0.0100    0.0100    0.0100    0.0100    0.0100    0.0100
    0.0100    0.0100    0.0100    0.0100    0.0100    0.0100    0.0100    0.0100
    0.0100    0.0100
   </PP_RAB>
 </PP_MESH>
  <PP_LOCAL type="real"  size=" 602" columns="4">
   -1.4046242841E+01   -1.4090743500E+01   -1.4228693643E+01   -1.4418035368E+01
   -1.4616710775E+01   -1.4790485858E+01   -1.4919590707E+01   -1.4998259517E+01
   -1.5030580505E+01   -1.5025748998E+01   -1.4994338733E+01   -1.4946012868E+01
   -1.4888477105E+01   -1.4827272779E+01   -1.4766024701E+01   -1.4706862993E+01
   -1.4650853624E+01   -1.4598360677E+01   -1.4549319438E+01   -1.4503426781E+01
   -1.4460266016E+01   -1.4419384143E+01   -1.4380336834E+01   -1.4342712499E+01
   -1.4306143434E+01   -1.4270309446E+01   -1.4234937114E+01   -1.4199797050E+01
   -1.4164700055E+01   -1.4129493079E+01   -1.4094055238E+01   -1.4058294048E+01
   -1.4022141949E+01   -1.3985553176E+01   -1.3948500810E+01   -1.3910974128E+01
   -1.3872976167E+01   -1.3834521462E+01   -1.3795633941E+01   -1.3756345041E+01
   -1.3716691936E+01   -1.3676715940E+01   -1.3636461074E+01   -1.3595972797E+01
   -1.3555296889E+01   -1.3514478497E+01   -1.3473561335E+01   -1.3432587038E+01
   -1.3391594652E+01   -1.3350620230E+01   -1.3309696580E+01   -1.3268853121E+01
   -1.3228115764E+01   -1.3187506915E+01   -1.3147045599E+01   -1.3106747434E+01
   -1.3066624914E+01   -1.3026687448E+01   -1.2986941642E+01   -1.2947391381E+01
   -1.2908038148E+01   -1.2868881050E+01   -1.2829917147E+01   -1.2791141533E+01
   -1.2752547507E+01   -1.2714126775E+01   -1.2675869536E+01   -1.2637764625E+01
   -1.2599799661E+01   -1.2561961161E+01   -1.2524234626E+01   -1.2486604666E+01
   -1.2449055112E+01   -1.2411569116E+01   -1.2374129252E+01   -1.2336717623E+01
   -1.2299315958E+01   -1.2261905727E+01   -1.2224468247E+01   -1.2186984790E+01
   -1.2149436687E+01   -1.2111805442E+01   -1.2074072840E+01   -1.2036221048E+01
   -1.1998232723E+01   -1.1960091110E+01   -1.1921780139E+01   -1.1883284509E+01
   -1.1844589773E+01   -1.1805682415E+01   -1.1766549905E+01   -1.1727180768E+01
   -1.1687564616E+01   -1.1647692194E+01   -1.1607555399E+01   -1.1567147280E+01
   -1.1526462063E+01   -1.1485495176E+01   -1.1444243177E+01   -1.1402703756E+01
   -1.1360875698E+01   -1.1318758845E+01   -1.1276354027E+01   -1.1233663066E+01
   -1.1190688739E+01   -1.1147434641E+01   -1.1103905166E+01   -1.1060105418E+01
   -1.1016041191E+01   -1.0971718954E+01   -1.0927145690E+01   -1.0882328878E+01
   -1.0837276399E+01   -1.0791996628E+01   -1.0746498228E+01   -1.0700790150E+01
   -1.0654881580E+01   -1.0608781978E+01   -1.0562500938E+01   -1.0516048189E+01
   -1.0469433594E+01   -1.0422667103E+01   -1.0375758716E+01   -1.0328718481E+01
   -1.0281556478E+01   -1.0234282790E+01   -1.0186907503E+01   -1.0139440684E+01
   -1.0091892378E+01   -1.0044272614E+01   -9.9965913603E+00   -9.9488585611E+00
   -9.9010841203E+00   -9.8532778678E+00   -9.8054496098E+00   -9.7576090831E+00
   -9.7097659547E+00   -9.6619298741E+00   -9.6141103737E+00   -9.5663169538E+00
   -9.5185590530E+00   -9.4708459940E+00   -9.4231870946E+00   -9.3755915174E+00
   -9.3280683870E+00   -9.2806267401E+00   -9.2332754624E+00   -9.1860234518E+00
   -9.1388793467E+00   -9.0918518146E+00   -9.0449492941E+00   -8.9981801478E+00
   -8.9515526090E+00   -8.9050746874E+00   -8.8587543888E+00   -8.8125993284E+00
   -8.7666172568E+00   -8.7208153846E+00   -8.6752010925E+00   -8.6297812387E+00
   -8.5845627644E+00   -8.5395521536E+00   -8.4947558742E+00   -8.4501800068E+00
   -8.4058305224E+00   -8.3617130670E+00   -8.3178331006E+00   -8.2741958035E+00
   -8.2308061202E+00   -8.1876687348E+00   -8.1447880818E+00   -8.1021683207E+00
   -8.0598133902E+00   -8.0177269006E+00   -7.9759123176E+00   -7.9343726825E+00
   -7.8931110167E+00   -7.8521297804E+00   -7.8114315829E+00   -7.7710183008E+00
   -7.7308921637E+00   -7.6910544790E+00   -7.6515071120E+00   -7.6122508956E+00
   -7.5732871797E+00   -7.5346165318E+00   -7.4962397431E+00   -7.4581571661E+00
   -7.4203690562E+00   -7.3828755876E+00   -7.3456765223E+00   -7.3087718748E+00
   -7.2721610100E+00   -7.2358436813E+00   -7.1998190630E+00   -7.1640865208E+00
   -7.1286451836E+00   -7.0934940426E+00   -7.0586321824E+00   -7.0240583114E+00
   -6.9897713875E+00   -6.9557700033E+00   -6.9220528664E+00   -6.8886185832E+00
   -6.8554656157E+00   -6.8225925720E+00   -6.7899977570E+00   -6.7576796369E+00
   -6.7256365249E+00   -6.6938666832E+00   -6.6623684604E+00   -6.6311399493E+00
   -6.6001794049E+00   -6.5694849039E+00   -6.5390544718E+00   -6.5088862653E+00
   -6.4789780763E+00   -6.4493279193E+00   -6.4199336098E+00   -6.3907927922E+00
   -6.3619034125E+00   -6.3332628094E+00   -6.3048685597E+00   -6.2767182078E+00
   -6.2488088110E+00   -6.2211376174E+00   -6.1937018853E+00   -6.1664988764E+00
   -6.1395255827E+00   -6.1127797558E+00   -6.0862588772E+00   -6.0599603774E+00
   -6.0338821877E+00   -6.0080219663E+00   -5.9823775000E+00   -5.9569467556E+00
   -5.9317275579E+00   -5.9067178465E+00   -5.8819155834E+00   -5.8573187143E+00
   -5.8329251594E+00   -5.8087328433E+00   -5.7847397736E+00   -5.7609437308E+00
   -5.7373425870E+00   -5.7139342990E+00   -5.6907164997E+00   -5.6676869569E+00
   -5.6448434645E+00   -5.6221836556E+00   -5.5997051837E+00   -5.5774056620E+00
   -5.5552830817E+00   -5.5333352235E+00   -5.5115598170E+00   -5.4899550805E+00
   -5.4685190168E+00   -5.4472496029E+00   -5.4261449766E+00   -5.4052031930E+00
   -5.3844222157E+00   -5.3638003600E+00   -5.3433358042E+00   -5.3230266043E+00
   -5.3028711435E+00   -5.2828676841E+00   -5.2630143799E+00   -5.2433096502E+00
   -5.2237518580E+00   -5.2043392613E+00   -5.1850702978E+00   -5.1659434311E+00
   -5.1469570249E+00   -5.1281095218E+00   -5.1093994852E+00   -5.0908253855E+00
   -5.0723856601E+00   -5.0540789692E+00   -5.0359038781E+00   -5.0178588496E+00
   -4.9999425983E+00   -4.9821537691E+00   -4.9644909290E+00   -4.9469527589E+00
   -4.9295380070E+00   -4.9122453480E+00   -4.8950734200E+00   -4.8780210701E+00
   -4.8610870553E+00   -4.8442700495E+00   -4.8275689099E+00   -4.8109824784E+00
   -4.7945095363E+00   -4.7781488746E+00   -4.7618994378E+00   -4.7457600962E+00
   -4.7297296370E+00   -4.7138070346E+00   -4.6979912330E+00   -4.6822811275E+00
   -4.6666756067E+00   -4.6511737187E+00   -4.6357744367E+00   -4.6204766659E+00
   -4.6052794463E+00   -4.5901818321E+00   -4.5751828391E+00   -4.5602814061E+00
   -4.5454766888E+00   -4.5307677540E+00   -4.5161536312E+00   -4.5016333806E+00
   -4.4872061716E+00   -4.4728711145E+00   -4.4586272572E+00   -4.4444737667E+00
   -4.4304098265E+00   -4.4164345882E+00   -4.4025471228E+00   -4.3887466883E+00
   -4.3750324847E+00   -4.3614036938E+00   -4.3478594410E+00   -4.3343990326E+00
   -4.3210216972E+00   -4.3077266414E+00   -4.2945130593E+00   -4.2813802801E+00
   -4.2683275682E+00   -4.2553541576E+00   -4.2424592995E+00   -4.2296423475E+00
   -4.2169026003E+00   -4.2042393220E+00   -4.1916518089E+00   -4.1791394416E+00
   -4.1667015513E+00   -4.1543374348E+00   -4.1420464224E+00   -4.1298279239E+00
   -4.1176813016E+00   -4.1056058872E+00   -4.0936010345E+00   -4.0816661849E+00
   -4.0698007302E+00   -4.0580040392E+00   -4.0462754798E+00   -4.0346145267E+00
   -4.0230206000E+00   -4.0114931078E+00   -4.0000314228E+00   -3.9886350549E+00
   -3.9773034510E+00   -3.9660360583E+00   -3.9548322539E+00   -3.9436915763E+00
   -3.9326135008E+00   -3.9215974999E+00   -3.9106429938E+00   -3.8997495052E+00
   -3.8889165511E+00   -3.8781436287E+00   -3.8674302034E+00   -3.8567757744E+00
   -3.8461799018E+00   -3.8356421059E+00   -3.8251619001E+00   -3.8147387534E+00
   -3.8043722692E+00   -3.7940619902E+00   -3.7838074592E+00   -3.7736081707E+00
   -3.7634637108E+00   -3.7533736632E+00   -3.7433375916E+00   -3.7333550421E+00
   -3.7234255540E+00   -3.7135487593E+00   -3.7037242424E+00   -3.6939515875E+00
   -3.6842303291E+00   -3.6745601009E+00   -3.6649405213E+00   -3.6553711939E+00
   -3.6458517078E+00   -3.6363816362E+00   -3.6269606497E+00   -3.6175883701E+00
   -3.6082644196E+00   -3.5989883817E+00   -3.5897599035E+00   -3.5805786483E+00
   -3.5714442557E+00   -3.5623563653E+00   -3.5533145601E+00   -3.5443185492E+00
   -3.5353679917E+00   -3.5264625438E+00   -3.5176018475E+00   -3.5087855327E+00
   -3.5000133161E+00   -3.4912848699E+00   -3.4825998664E+00   -3.4739579509E+00
   -3.4653587989E+00   -3.4568021286E+00   -3.4482876277E+00   -3.4398149837E+00
   -3.4313838482E+00   -3.4229939332E+00   -3.4146449612E+00   -3.4063366345E+00
   -3.3980686551E+00   -3.3898406841E+00   -3.3816524608E+00   -3.3735037151E+00
   -3.3653941630E+00   -3.3573235205E+00   -3.3492914608E+00   -3.3412977421E+00
   -3.3333421044E+00   -3.3254242770E+00   -3.3175439890E+00   -3.3097009283E+00
   -3.3018948642E+00   -3.2941255496E+00   -3.2863927263E+00   -3.2786961360E+00
   -3.2710354833E+00   -3.2634105417E+00   -3.2558210792E+00   -3.2482668496E+00
   -3.2407476066E+00   -3.2332630741E+00   -3.2258130224E+00   -3.2183972371E+00
   -3.2110154835E+00   -3.2036675269E+00   -3.1963531122E+00   -3.1890720006E+00
   -3.1818239972E+00   -3.1746088781E+00   -3.1674264197E+00   -3.1602763902E+00
   -3.1531585358E+00   -3.1460726827E+00   -3.1390186174E+00   -3.1319961268E+00
   -3.1250049974E+00   -3.1180449767E+00   -3.1111158917E+00   -3.1042175461E+00
   -3.0973497365E+00   -3.0905122596E+00   -3.0837048903E+00   -3.0769274270E+00
   -3.0701796999E+00   -3.0634615150E+00   -3.0567726787E+00   -3.0501129955E+00
   -3.0434822306E+00   -3.0368802415E+00   -3.0303068432E+00   -3.0237618510E+00
   -3.0172450800E+00   -3.0107563225E+00   -3.0042953998E+00   -2.9978621565E+00
   -2.9914564164E+00   -2.9850780033E+00   -2.9787267409E+00   -2.9724024133E+00
   -2.9661048891E+00   -2.9598340027E+00   -2.9535895860E+00   -2.9473714710E+00
   -2.9411794768E+00   -2.9350134217E+00   -2.9288731742E+00   -2.9227585741E+00
   -2.9166694611E+00   -2.9106056752E+00   -2.9045670318E+00   -2.8985533828E+00
   -2.8925645919E+00   -2.8866005064E+00   -2.8806609735E+00   -2.8747458406E+00
   -2.8688549226E+00   -2.8629880974E+00   -2.8571452267E+00   -2.8513261650E+00
   -2.8455307664E+00   -2.8397588855E+00   -2.8340103394E+00   -2.8282850251E+00
   -2.8225828049E+00   -2.8169035398E+00   -2.8112470911E+00   -2.8056133176E+00
   -2.8000020480E+00   -2.7944131850E+00   -2.7888465961E+00   -2.7833021490E+00
   -2.7777797113E+00   -2.7722791481E+00   -2.7668002961E+00   -2.7613430630E+00
   -2.7559073224E+00   -2.7504929483E+00   -2.7450998144E+00   -2.7397277941E+00
   -2.7343767266E+00   -2.7290465265E+00   -2.7237370736E+00   -2.7184482475E+00
   -2.7131799279E+00   -2.7079319945E+00   -2.7027042964E+00   -2.6974967443E+00
   -2.6923092279E+00   -2.6871416324E+00   -2.6819938432E+00   -2.6768657455E+00
   -2.6717572015E+00   -2.6666681119E+00   -2.6615983785E+00   -2.6565478919E+00
   -2.6515165429E+00   -2.6465042221E+00   -2.6415108068E+00   -2.6365361824E+00
   -2.6315802652E+00   -2.6266429507E+00   -2.6217241348E+00   -2.6168237131E+00
   -2.6119415801E+00   -2.6070776020E+00   -2.6022317102E+00   -2.5974038054E+00
   -2.5925937883E+00   -2.5878015593E+00   -2.5830270191E+00   -2.5782700488E+00
   -2.5735305585E+00   -2.5688084662E+00   -2.5641036769E+00   -2.5594160960E+00
   -2.5547456287E+00   -2.5500921771E+00   -2.5454556220E+00   -2.5408359009E+00
   -2.5362329234E+00   -2.5316465992E+00   -2.5270768379E+00   -2.5225235492E+00
   -2.5179866270E+00   -2.5134659838E+00   -2.5089615483E+00   -2.5044732344E+00
   -2.5000009560E+00   -2.4955446269E+00   -2.4911041610E+00   -2.4866794470E+00
   -2.4822704226E+00   -2.4778770102E+00   -2.4734991277E+00   -2.4691366929E+00
   -2.4647896238E+00   -2.4604578353E+00   -2.4561412225E+00   -2.4518397331E+00
   -2.4475532886E+00   -2.4432818110E+00   -2.4390252218E+00   -2.4347834427E+00
   -2.4305563876E+00   -2.4263439663E+00   -2.4221461248E+00   -2.4179627884E+00
   -2.4137938825E+00   -2.4096393323E+00   -2.4054990633E+00   -2.4013729906E+00
   -2.3972610332E+00   -2.3931631377E+00   -2.3890792328E+00   -2.3850092474E+00
   -2.3809531103E+00   -2.3769107503E+00   -2.3728820861E+00   -2.3688670407E+00
   -2.3648655634E+00   -2.3608775863E+00   -2.3569030415E+00   -2.3529418612E+00
   -2.3489939774E+00   -2.3450593145E+00   -2.3411377947E+00   -2.3372293720E+00
   -2.3333339816E+00   -2.3294515588E+00
  </PP_LOCAL>
 <PP_NONLOCAL>
   <PP_BETA.1
       type="real"
       size=" 602"
       columns="4"
       index="1"
       angular_momentum="0"
       cutoff_radius_index=" 254"
       cutoff_radius="    2.5300000000E+00" >
    0.0000000000E+00   -3.0707725670E-02   -6.1413072811E-02   -9.2113464848E-02
   -1.2280593036E-01   -1.5348690880E-01   -1.8415205991E-01   -2.1479607813E-01
   -2.4541251309E-01   -2.7599359747E-01   -3.0653008322E-01   -3.3701108727E-01
   -3.6742394786E-01   -3.9775409226E-01   -4.2798491699E-01   -4.5809768130E-01
   -4.8807141475E-01   -5.1788283954E-01   -5.4750630828E-01   -5.7691375774E-01
   -6.0607467920E-01   -6.3495610538E-01   -6.6352261489E-01   -6.9173635383E-01
   -7.1955707501E-01   -7.4694219475E-01   -7.7384686704E-01   -8.0022407540E-01
   -8.2602474141E-01   -8.5119785038E-01   -8.7569059326E-01   -8.9944852454E-01
   -9.2241573454E-01   -9.4453503861E-01   -9.6574817743E-01   -9.8599603109E-01
   -1.0052188470E+00   -1.0233564778E+00   -1.0403486254E+00   -1.0561351022E+00
   -1.0706560947E+00   -1.0838524324E+00   -1.0956658653E+00   -1.1060393446E+00
   -1.1149173054E+00   -1.1222459516E+00   -1.1279735400E+00   -1.1320506613E+00
   -1.1344305165E+00   -1.1350692114E+00   -1.1339260090E+00   -1.1309635834E+00
   -1.1261482996E+00   -1.1194504591E+00   -1.1108444780E+00   -1.1003092117E+00
   -1.0878280464E+00   -1.0733891968E+00   -1.0569857885E+00   -1.0386161235E+00
   -1.0182836859E+00   -9.9599743649E-01   -9.7177175430E-01   -9.4562661569E-01
   -9.1758765692E-01   -8.8768614672E-01   -8.5595906989E-01   -8.2244912602E-01
   -7.8720465856E-01   -7.5027961165E-01   -7.1173350367E-01   -6.7163130048E-01
   -6.3004328973E-01   -5.8704494901E-01   -5.4271678277E-01   -4.9714413817E-01
   -4.5041700338E-01   -4.0262976788E-01   -3.5388098073E-01   -3.0427308384E-01
   -2.5391212684E-01   -2.0290746450E-01   -1.5137143790E-01   -9.9419040573E-02
   -4.7167570680E-02    5.2637292591E-03    5.7754043841E-02    1.1018136599E-01
    1.6242288644E-01    2.1435538991E-01    2.6585565639E-01    3.1680086591E-01
    3.6706900504E-01    4.1653927327E-01    4.6509248764E-01    5.1261142237E-01