<UPF version="2.0.1">
  <PP_INFO>

 This pseudopotential file has been produced using the code
 ONCVPSP  (Optimized Norm-Conservinng Vanderbilt PSeudopotential)
 scalar-relativistic version 2.1.1, 03/26/2014 by D. R. Hamann
 The code is available through a link at URL www.mat-simresearch.com.
 Documentation with the package provides a full discription of the
 input data below.


 While it is not required under the terms of the GNU GPL, it is
 suggested that you cite D. R. Hamann, Phys. Rev. B 88, 085117 (2013)
 in any publication using these pseudopotentials.


 Copyright 2015 The Regents of the University of California
 
 This work is licensed under the Creative Commons Attribution-ShareAlike 
 4.0 International License. To view a copy of this license, visit 
 http://creativecommons.org/licenses/by-sa/4.0/ or send a letter to 
 Creative Commons, PO Box 1866, Mountain View, CA 94042, USA.
 
 This pseudopotential is part of the Schlipf-Gygi norm-conserving 
 pseudopotential library. Its construction parameters were tuned to 
 reproduce materials of a training set with very high accuracy and 
 should be suitable as a general purpose pseudopotential to treat a 
 variety of different compounds. For details of the construction and 
 testing of the pseudopotential please refer to:
 
 [insert reference to paper here]
 
 We kindly ask that you include this reference in all publications 
 associated to this pseudopotential.


    <PP_INPUTFILE>
# ATOM AND REFERENCE CONFIGURATION
# atsym  z    nc    nv    iexc   psfile
  Ca 20.00     3     3     4      upf
#
#   n    l    f        energy (Ha)
    1    0    2.00
    2    0    2.00
    2    1    6.00
    3    0    2.00
    3    1    6.00
    4    0    2.00
#
# PSEUDOPOTENTIAL AND OPTIMIZATION
# lmax
    2
#
#   l,   rc,     ep,   ncon, nbas, qcut
    0   2.24135  -1.73059    5    8   6.36134
    1   2.46578  -1.02928    5    8   6.21675
    2   2.40765  -0.00765    5    8   7.67342
#
# LOCAL POTENTIAL
# lloc, lpopt,  rc(5),   dvloc0
    4    5   2.11158      0.00000
#
# VANDERBILT-KLEINMAN-BYLANDER PROJECTORs
# l, nproj, debl
    0    2   1.59218
    1    2   1.25004
    2    2   1.26452
#
# MODEL CORE CHARGE
# icmod, fcfact
    0   0.00000
#
# LOG DERIVATIVE ANALYSIS
# epsh1, epsh2, depsh
   -5.00    3.00    0.02
#
# OUTPUT GRID
# rlmax, drl
    6.00    0.01
#
# TEST CONFIGURATIONS
# ncnf
    0
# nvcnf
#   n    l    f
    </PP_INPUTFILE>
  </PP_INFO>
  <!--                               -->
  <!-- END OF HUMAN READABLE SECTION -->
  <!--                               -->
    <PP_HEADER
       generated="Generated using ONCVPSP code by D. R. Hamann"
       author="Martin Schlipf and Francois Gygi"
       date="150105"
       comment=""
       element="Ca"
       pseudo_type="NC"
       relativistic="scalar"
       is_ultrasoft="F"
       is_paw="F"
       is_coulomb="F"
       has_so="F"
       has_wfc="F"
       has_gipaw="F"
       core_correction="F"
       functional="PBE"
       z_valence="   10.00"
       total_psenergy="  -3.68044960115E+01"
       rho_cutoff="   6.01000000000E+00"
       l_max="2"
       l_local="-1"
       mesh_size="   602"
       number_of_wfc="0"
       number_of_proj="6"/>
 <PP_MESH>
   <PP_R type="real"  size=" 602" columns="8">
    0.0000    0.0100    0.0200    0.0300    0.0400    0.0500    0.0600    0.0700
    0.0800    0.0900    0.1000    0.1100    0.1200    0.1300    0.1400    0.1500
    0.1600    0.1700    0.1800    0.1900    0.2000    0.2100    0.2200    0.2300
    0.2400    0.2500    0.2600    0.2700    0.2800    0.2900    0.3000    0.3100
    0.3200    0.3300    0.3400    0.3500    0.3600    0.3700    0.3800    0.3900
    0.4000    0.4100    0.4200    0.4300    0.4400    0.4500    0.4600    0.4700
    0.4800    0.4900    0.5000    0.5100    0.5200    0.5300    0.5400    0.5500
    0.5600    0.5700    0.5800    0.5900    0.6000    0.6100    0.6200    0.6300
    0.6400    0.6500    0.6600    0.6700    0.6800    0.6900    0.7000    0.7100
    0.7200    0.7300    0.7400    0.7500    0.7600    0.7700    0.7800    0.7900
    0.8000    0.8100    0.8200    0.8300    0.8400    0.8500    0.8600    0.8700
    0.8800    0.8900    0.9000    0.9100    0.9200    0.9300    0.9400    0.9500
    0.9600    0.9700    0.9800    0.9900    1.0000    1.0100    1.0200    1.0300
    1.0400    1.0500    1.0600    1.0700    1.0800    1.0900    1.1000    1.1100
    1.1200    1.1300    1.1400    1.1500    1.1600    1.1700    1.1800    1.1900
    1.2000    1.2100    1.2200    1.2300    1.2400    1.2500    1.2600    1.2700
    1.2800    1.2900    1.3000    1.3100    1.3200    1.3300    1.3400    1.3500
    1.3600    1.3700    1.3800    1.3900    1.4000    1.4100    1.4200    1.4300
    1.4400    1.4500    1.4600    1.4700    1.4800    1.4900    1.5000    1.5100
    1.5200    1.5300    1.5400    1.5500    1.5600    1.5700    1.5800    1.5900
    1.6000    1.6100    1.6200    1.6300    1.6400    1.6500    1.6600    1.6700
    1.6800    1.6900    1.7000    1.7100    1.7200    1.7300    1.7400    1.7500
    1.7600    1.7700    1.7800    1.7900    1.8000    1.8100    1.8200    1.8300
    1.8400    1.8500    1.8600    1.8700    1.8800    1.8900    1.9000    1.9100
    1.9200    1.9300    1.9400    1.9500    1.9600    1.9700    1.9800    1.9900
    2.0000    2.0100    2.0200    2.0300    2.0400    2.0500    2.0600    2.0700
    2.0800    2.0900    2.1000    2.1100    2.1200    2.1300    2.1400    2.1500
    2.1600    2.1700    2.1800    2.1900    2.2000    2.2100    2.2200    2.2300
    2.2400    2.2500    2.2600    2.2700    2.2800    2.2900    2.3000    2.3100
    2.3200    2.3300    2.3400    2.3500    2.3600    2.3700    2.3800    2.3900
    2.4000    2.4100    2.4200    2.4300    2.4400    2.4500    2.4600    2.4700
    2.4800    2.4900    2.5000    2.5100    2.5200    2.5300    2.5400    2.5500
    2.5600    2.5700    2.5800    2.5900    2.6000    2.6100    2.6200    2.6300
    2.6400    2.6500    2.6600    2.6700    2.6800    2.6900    2.7000    2.7100
    2.7200    2.7300    2.7400    2.7500    2.7600    2.7700    2.7800    2.7900
    2.8000    2.8100    2.8200    2.8300    2.8400    2.8500    2.8600    2.8700
    2.8800    2.8900    2.9000    2.9100    2.9200    2.9300    2.9400    2.9500
    2.9600    2.9700    2.9800    2.9900    3.0000    3.0100    3.0200    3.0300
    3.0400    3.0500    3.0600    3.0700    3.0800    3.0900    3.1000    3.1100
    3.1200    3.1300    3.1400    3.1500    3.1600    3.1700    3.1800    3.1900
    3.2000    3.2100    3.2200    3.2300    3.2400    3.2500    3.2600    3.2700
    3.2800    3.2900    3.3000    3.3100    3.3200    3.3300    3.3400    3.3500
    3.3600    3.3700    3.3800    3.3900    3.4000    3.4100    3.4200    3.4300
    3.4400    3.4500    3.4600    3.4700    3.4800    3.4900    3.5000    3.5100
    3.5200    3.5300    3.5400    3.5500    3.5600    3.5700    3.5800    3.5900
    3.6000    3.6100    3.6200    3.6300    3.6400    3.6500    3.6600    3.6700
    3.6800    3.6900    3.7000    3.7100    3.7200    3.7300    3.7400    3.7500
    3.7600    3.7700    3.7800    3.7900    3.8000    3.8100    3.8200    3.8300
    3.8400    3.8500    3.8600    3.8700    3.8800    3.8900    3.9000    3.9100
    3.9200    3.9300    3.9400    3.9500    3.9600    3.9700    3.9800    3.9900
    4.0000    4.0100    4.0200    4.0300    4.0400    4.0500    4.0600    4.0700
    4.0800    4.0900    4.1000    4.1100    4.1200    4.1300    4.1400    4.1500
    4.1600    4.1700    4.1800    4.1900    4.2000    4.2100    4.2200    4.2300
    4.2400    4.2500    4.2600    4.2700    4.2800    4.2900    4.3000    4.3100
    4.3200    4.3300    4.3400    4.3500    4.3600    4.3700    4.3800    4.3900
    4.4000    4.4100    4.4200    4.4300    4.4400    4.4500    4.4600    4.4700
    4.4800    4.4900    4.5000    4.5100    4.5200    4.5300    4.5400    4.5500
    4.5600    4.5700    4.5800    4.5900    4.6000    4.6100    4.6200    4.6300
    4.6400    4.6500    4.6600    4.6700    4.6800    4.6900    4.7000    4.7100
    4.7200    4.7300    4.7400    4.7500    4.7600    4.7700    4.7800    4.7900
    4.8000    4.8100    4.8200    4.8300    4.8400    4.8500    4.8600    4.8700
    4.8800    4.8900    4.9000    4.9100    4.9200    4.9300    4.9400    4.9500
    4.9600    4.9700    4.9800    4.9900    5.0000    5.0100    5.0200    5.0300
    5.0400    5.0500    5.0600    5.0700    5.0800    5.0900    5.1000    5.1100
    5.1200    5.1300    5.1400    5.1500    5.1600    5.1700    5.1800    5.1900
    5.2000    5.2100    5.2200    5.2300    5.2400    5.2500    5.2600    5.2700
    5.2800    5.2900    5.3000    5.3100    5.3200    5.3300    5.3400    5.3500
    5.3600    5.3700    5.3800    5.3900    5.4000    5.4100    5.4200    5.4300
    5.4400    5.4500    5.4600    5.4700    5.4800    5.4900    5.5000    5.5100
    5.5200    5.5300    5.5400    5.5500    5.5600    5.5700    5.5800    5.5900
    5.6000    5.6100    5.6200    5.6300    5.6400    5.6500    5.6600    5.6700
    5.6800    5.6900    5.7000    5.7100    5.7200    5.7300    5.7400    5.7500
    5.7600    5.7700    5.7800    5.7900    5.8000    5.8100    5.8200    5.8300
    5.8400    5.8500    5.8600    5.8700    5.8800    5.8900    5.9000    5.9100
    5.9200    5.9300    5.9400    5.9500    5.9600    5.9700    5.9800    5.9900
    6.0000    6.0100
   </PP_R>
   <PP_RAB type="real"  size=" 602" columns="8">
    0.0100    0.0100    0.0100    0.0100    0.0100    0.0100    0.0100    0.0100
    0.0100    0.0100    0.0100    0.0100    0.0100    0.0100    0.0100    0.0100
    0.0100    0.0100    0.0100    0.0100    0.0100    0.0100    0.0100    0.0100
    0.0100    0.0100    0.0100    0.0100    0.0100    0.0100    0.0100    0.0100
    0.0100    0.0100    0.0100    0.0100    0.0100    0.0100    0.0100    0.0100
    0.0100    0.0100    0.0100    0.0100    0.0100    0.0100    0.0100    0.0100
    0.0100    0.0100    0.0100    0.0100    0.0100    0.0100    0.0100    0.0100
    0.0100    0.0100    0.0100    0.0100    0.0100    0.0100    0.0100    0.0100
    0.0100    0.0100    0.0100    0.0100    0.0100    0.0100    0.0100    0.0100
    0.0100    0.0100    0.0100    0.0100    0.0100    0.0100    0.0100    0.0100
    0.0100    0.0100    0.0100    0.0100    0.0100    0.0100    0.0100    0.0100
    0.0100    0.0100    0.0100    0.0100    0.0100    0.0100    0.0100    0.0100
    0.0100    0.0100    0.0100    0.0100    0.0100    0.0100    0.0100    0.0100
    0.0100    0.0100    0.0100    0.0100    0.0100    0.0100    0.0100    0.0100
    0.0100    0.0100    0.0100    0.0100    0.0100    0.0100    0.0100    0.0100
    0.0100    0.0100    0.0100    0.0100    0.0100    0.0100    0.0100    0.0100
    0.0100    0.0100    0.0100    0.0100    0.0100    0.0100    0.0100    0.0100
    0.0100    0.0100    0.0100    0.0100    0.0100    0.0100    0.0100    0.0100
    0.0100    0.0100    0.0100    0.0100    0.0100    0.0100    0.0100    0.0100
    0.0100    0.0100    0.0100    0.0100    0.0100    0.0100    0.0100    0.0100
    0.0100    0.0100    0.0100    0.0100    0.0100    0.0100    0.0100    0.0100
    0.0100    0.0100    0.0100    0.0100    0.0100    0.0100    0.0100    0.0100
    0.0100    0.0100    0.0100    0.0100    0.0100    0.0100    0.0100    0.0100
    0.0100    0.0100    0.0100    0.0100    0.0100    0.0100    0.0100    0.0100
    0.0100    0.0100    0.0100    0.0100    0.0100    0.0100    0.0100    0.0100
    0.0100    0.0100    0.0100    0.0100    0.0100    0.0100    0.0100    0.0100
    0.0100    0.0100    0.0100    0.0100    0.0100    0.0100    0.0100    0.0100
    0.0100    0.0100    0.0100    0.0100    0.0100    0.0100    0.0100    0.0100
    0.0100    0.0100    0.0100    0.0100    0.0100    0.0100    0.0100    0.0100
    0.0100    0.0100    0.0100    0.0100    0.0100    0.0100    0.0100    0.0100
    0.0100    0.0100    0.0100    0.0100    0.0100    0.0100    0.0100    0.0100
    0.0100    0.0100    0.0100    0.0100    0.0100    0.0100    0.0100    0.0100
    0.0100    0.0100    0.0100    0.0100    0.0100    0.0100    0.0100    0.0100
    0.0100    0.0100    0.0100    0.0100    0.0100    0.0100    0.0100    0.0100
    0.0100    0.0100    0.0100    0.0100    0.0100    0.0100    0.0100    0.0100
    0.0100    0.0100    0.0100    0.0100    0.0100    0.0100    0.0100    0.0100
    0.0100    0.0100    0.0100    0.0100    0.0100    0.0100    0.0100    0.0100
    0.0100    0.0100    0.0100    0.0100    0.0100    0.0100    0.0100    0.0100
    0.0100    0.0100    0.0100    0.0100    0.0100    0.0100    0.0100    0.0100
    0.0100    0.0100    0.0100    0.0100    0.0100    0.0100    0.0100    0.0100
    0.0100    0.0100    0.0100    0.0100    0.0100    0.0100    0.0100    0.0100
    0.0100    0.0100    0.0100    0.0100    0.0100    0.0100    0.0100    0.0100
    0.0100    0.0100    0.0100    0.0100    0.0100    0.0100    0.0100    0.0100
    0.0100    0.0100    0.0100    0.0100    0.0100    0.0100    0.0100    0.0100
    0.0100    0.0100    0.0100    0.0100    0.0100    0.0100    0.0100    0.0100
    0.0100    0.0100    0.0100    0.0100    0.0100    0.0100    0.0100    0.0100
    0.0100    0.0100    0.0100    0.0100    0.0100    0.0100    0.0100    0.0100
    0.0100    0.0100    0.0100    0.0100    0.0100    0.0100    0.0100    0.0100
    0.0100    0.0100    0.0100    0.0100    0.0100    0.0100    0.0100    0.0100
    0.0100    0.0100    0.0100    0.0100    0.0100    0.0100    0.0100    0.0100
    0.0100    0.0100    0.0100    0.0100    0.0100    0.0100    0.0100    0.0100
    0.0100    0.0100    0.0100    0.0100    0.0100    0.0100    0.0100    0.0100
    0.0100    0.0100    0.0100    0.0100    0.0100    0.0100    0.0100    0.0100
    0.0100    0.0100    0.0100    0.0100    0.0100    0.0100    0.0100    0.0100
    0.0100    0.0100    0.0100    0.0100    0.0100    0.0100    0.0100    0.0100
    0.0100    0.0100    0.0100    0.0100    0.0100    0.0100    0.0100    0.0100
    0.0100    0.0100    0.0100    0.0100    0.0100    0.0100    0.0100    0.0100
    0.0100    0.0100    0.0100    0.0100    0.0100    0.0100    0.0100    0.0100
    0.0100    0.0100    0.0100    0.0100    0.0100    0.0100    0.0100    0.0100
    0.0100    0.0100    0.0100    0.0100    0.0100    0.0100    0.0100    0.0100
    0.0100    0.0100    0.0100    0.0100    0.0100    0.0100    0.0100    0.0100
    0.0100    0.0100    0.0100    0.0100    0.0100    0.0100    0.0100    0.0100
    0.0100    0.0100    0.0100    0.0100    0.0100    0.0100    0.0100    0.0100
    0.0100    0.0100    0.0100    0.0100    0.0100    0.0100    0.0100    0.0100
    0.0100    0.0100    0.0100    0.0100    0.0100    0.0100    0.0100    0.0100
    0.0100    0.0100    0.0100    0.0100    0.0100    0.0100    0.0100    0.0100
    0.0100    0.0100    0.0100    0.0100    0.0100    0.0100    0.0100    0.0100
    0.0100    0.0100    0.0100    0.0100    0.0100    0.0100    0.0100    0.0100
    0.0100    0.0100    0.0100    0.0100    0.0100    0.0100    0.0100    0.0100
    0.0100    0.0100    0.0100    0.0100    0.0100    0.0100    0.0100    0.0100
    0.0100    0.0100    0.0100    0.0100    0.0100    0.0100    0.0100    0.0100
    0.0100    0.0100    0.0100    0.0100    0.0100    0.0100    0.0100    0.0100
    0.0100    0.0100    0.0100    0.0100    0.0100    0.0100    0.0100    0.0100
    0.0100    0.0100    0.0100    0.0100    0.0100    0.0100    0.0100    0.0100
    0.0100    0.0100    0.0100    0.0100    0.0100    0.0100    0.0100    0.0100
    0.0100    0.0100
   </PP_RAB>
 </PP_MESH>
  <PP_LOCAL type="real"  size=" 602" columns="4">
   -2.2434792184E+01   -2.2439239563E+01   -2.2454517861E+01   -2.2477497169E+01
   -2.2505047580E+01   -2.2533755542E+01   -2.2560487850E+01   -2.2582764849E+01
   -2.2598912619E+01   -2.2608035936E+01   -2.2609883520E+01   -2.2604672651E+01
   -2.2592919520E+01   -2.2575299361E+01   -2.2552543686E+01   -2.2525372164E+01
   -2.2494452416E+01   -2.2460380130E+01   -2.2423672772E+01   -2.2384771592E+01
   -2.2344048187E+01   -2.2301812983E+01   -2.2258324165E+01   -2.2213796053E+01
   -2.2168406553E+01   -2.2122303441E+01   -2.2075609596E+01   -2.2028427174E+01
   -2.1980840954E+01   -2.1932920950E+01   -2.1884724452E+01   -2.1836297622E+01
   -2.1787676741E+01   -2.1738889196E+01   -2.1689954267E+01   -2.1640883800E+01
   -2.1591682733E+01   -2.1542349593E+01   -2.1492876939E+01   -2.1443251733E+01
   -2.1393455756E+01   -2.1343465978E+01   -2.1293254941E+01   -2.1242791153E+01
   -2.1192039496E+01   -2.1140961650E+01   -2.1089516542E+01   -2.1037660822E+01
   -2.0985349351E+01   -2.0932535712E+01   -2.0879172753E+01   -2.0825213129E+01
   -2.0770609846E+01   -2.0715316840E+01   -2.0659289481E+01   -2.0602485150E+01
   -2.0544863692E+01   -2.0486387914E+01   -2.0427023978E+01   -2.0366741804E+01
   -2.0305515286E+01   -2.0243322702E+01   -2.0180146641E+01   -2.0115974347E+01
   -2.0050797623E+01   -1.9984612713E+01   -1.9917420410E+01   -1.9849225753E+01
   -1.9780037816E+01   -1.9709869424E+01   -1.9638737040E+01   -1.9566660257E+01
   -1.9493661527E+01   -1.9419765821E+01   -1.9345000261E+01   -1.9269393833E+01
   -1.9192977014E+01   -1.9115781455E+01   -1.9037839701E+01   -1.8959184916E+01
   -1.8879850643E+01   -1.8799870581E+01   -1.8719278397E+01   -1.8638107556E+01
   -1.8556391184E+01   -1.8474161951E+01   -1.8391451977E+01   -1.8308292756E+01
   -1.8224715105E+01   -1.8140749119E+01   -1.8056424151E+01   -1.7971768793E+01
   -1.7886810878E+01   -1.7801577480E+01   -1.7716094926E+01   -1.7630388814E+01
   -1.7544484047E+01   -1.7458404816E+01   -1.7372174643E+01   -1.7285816418E+01
   -1.7199352415E+01   -1.7112804314E+01   -1.7026193227E+01   -1.6939539753E+01
   -1.6852863890E+01   -1.6766185160E+01   -1.6679522591E+01   -1.6592894737E+01
   -1.6506319726E+01   -1.6419815148E+01   -1.6333398184E+01   -1.6247085580E+01
   -1.6160893692E+01   -1.6074838395E+01   -1.5988935133E+01   -1.5903198951E+01
   -1.5817644539E+01   -1.5732286069E+01   -1.5647137314E+01   -1.5562211675E+01
   -1.5477522158E+01   -1.5393081230E+01   -1.5308901005E+01   -1.5224993286E+01
   -1.5141369243E+01   -1.5058039710E+01   -1.4975015220E+01   -1.4892305677E+01
   -1.4809920621E+01   -1.4727869329E+01   -1.4646160399E+01   -1.4564802116E+01
   -1.4483802499E+01   -1.4403168850E+01   -1.4322908271E+01   -1.4243027469E+01
   -1.4163532557E+01   -1.4084429522E+01   -1.4005723757E+01   -1.3927420327E+01
   -1.3849524113E+01   -1.3772039332E+01   -1.3694970171E+01   -1.3618320305E+01
   -1.3542093144E+01   -1.3466291938E+01   -1.3390919422E+01   -1.3315978374E+01
   -1.3241471066E+01   -1.3167399751E+01   -1.3093766405E+01   -1.3020572828E+01
   -1.2947820745E+01   -1.2875511620E+01   -1.2803646970E+01   -1.2732228053E+01
   -1.2661256191E+01   -1.2590732554E+01   -1.2520658340E+01   -1.2451034682E+01
   -1.2381862732E+01   -1.2313143626E+01   -1.2244878536E+01   -1.2177068637E+01
   -1.2109715164E+01   -1.2042819359E+01   -1.1976382545E+01   -1.1910406052E+01
   -1.1844891295E+01   -1.1779839697E+01   -1.1715252759E+01   -1.1651131989E+01
   -1.1587478950E+01   -1.1524295217E+01   -1.1461582378E+01   -1.1399342042E+01
   -1.1337575789E+01   -1.1276285203E+01   -1.1215471825E+01   -1.1155137144E+01
   -1.1095282634E+01   -1.1035909599E+01   -1.0977019431E+01   -1.0918613146E+01
   -1.0860692048E+01   -1.0803256811E+01   -1.0746308480E+01   -1.0689847480E+01
   -1.0633874443E+01   -1.0578389576E+01   -1.0523392958E+01   -1.0468884628E+01
   -1.0414863977E+01   -1.0361330918E+01   -1.0308284171E+01   -1.0255723165E+01
   -1.0203646322E+01   -1.0152052256E+01   -1.0100939283E+01   -1.0050305027E+01
   -1.0000147775E+01   -9.9504642829E+00   -9.9012521982E+00   -9.8525080909E+00
   -9.8042284920E+00   -9.7564100549E+00   -9.7090481527E+00   -9.6621391751E+00
   -9.6156779424E+00   -9.5696596728E+00   -9.5240794165E+00   -9.4789310725E+00
   -9.4342092161E+00   -9.3899078105E+00   -9.3460208242E+00   -9.3025423309E+00
   -9.2594668011E+00   -9.2167883404E+00   -9.1745015959E+00   -9.1326011880E+00
   -9.0910815544E+00   -9.0499377929E+00   -9.0091646096E+00   -8.9687570173E+00
   -8.9287102891E+00   -8.8890193212E+00   -8.8496796519E+00   -8.8106866519E+00
   -8.7720355741E+00   -8.7337222634E+00   -8.6957422217E+00   -8.6580911489E+00
   -8.6207650367E+00   -8.5837595856E+00   -8.5470708410E+00   -8.5106948885E+00
   -8.4746275745E+00   -8.4388652189E+00   -8.4034040056E+00   -8.3682399960E+00
   -8.3333696533E+00   -8.2987892539E+00   -8.2644950607E+00   -8.2304836353E+00
   -8.1967513492E+00   -8.1632946347E+00   -8.1301102018E+00   -8.0971945056E+00
   -8.0645441758E+00   -8.0321561856E+00   -8.0000272076E+00   -7.9681541102E+00
   -7.9365340317E+00   -7.9051638807E+00   -7.8740406941E+00   -7.8431616770E+00
   -7.8125238464E+00   -7.7821243506E+00   -7.7519605642E+00   -7.7220296675E+00
   -7.6923289139E+00   -7.6628558088E+00   -7.6336076823E+00   -7.6045818647E+00
   -7.5757759990E+00   -7.5471875662E+00   -7.5188139544E+00   -7.4906529413E+00
   -7.4627021493E+00   -7.4349590365E+00   -7.4074214831E+00   -7.3800872316E+00
   -7.3529538870E+00   -7.3260193370E+00   -7.2992814685E+00   -7.2727380360E+00
   -7.2463869168E+00   -7.2202261401E+00   -7.1942536124E+00   -7.1684671863E+00
   -7.1428650291E+00   -7.1174451743E+00   -7.0922055198E+00   -7.0671442853E+00
   -7.0422596212E+00   -7.0175495743E+00   -6.9930123018E+00   -6.9686461004E+00
   -6.9444491718E+00   -6.9204195999E+00   -6.8965558206E+00   -6.8728561282E+00
   -6.8493187232E+00   -6.8259419790E+00   -6.8027243314E+00   -6.7796641372E+00
   -6.7567596644E+00   -6.7340094924E+00   -6.7114120707E+00   -6.6889657638E+00
   -6.6666690818E+00   -6.6445206112E+00   -6.6225188737E+00   -6.6006622542E+00
   -6.5789494771E+00   -6.5573791349E+00   -6.5359497656E+00   -6.5146599461E+00
   -6.4935084228E+00   -6.4724938522E+00   -6.4516147950E+00   -6.4308700038E+00
   -6.4102582407E+00   -6.3897782249E+00   -6.3694285481E+00   -6.3492081134E+00
   -6.3291157019E+00   -6.3091500617E+00   -6.2893099154E+00   -6.2695941988E+00
   -6.2500017481E+00   -6.2305313433E+00   -6.2111818252E+00   -6.1919521581E+00
   -6.1728412322E+00   -6.1538478644E+00   -6.1349709947E+00   -6.1162096186E+00
   -6.0975626781E+00   -6.0790290312E+00   -6.0606076984E+00   -6.0422977104E+00
   -6.0240980584E+00   -6.0060076450E+00   -5.9880255543E+00   -5.9701508556E+00
   -5.9523825875E+00   -5.9347196999E+00   -5.9171613247E+00   -5.8997065736E+00
   -5.8823545301E+00   -5.8651041947E+00   -5.8479547319E+00   -5.8309052995E+00
   -5.8139550236E+00   -5.7971029582E+00   -5.7803482865E+00   -5.7636902155E+00
   -5.7471279121E+00   -5.7306604867E+00   -5.7142871276E+00   -5.6980070945E+00
   -5.6818195927E+00   -5.6657237921E+00   -5.6497188745E+00   -5.6338041535E+00
   -5.6179788718E+00   -5.6022422617E+00   -5.5865934871E+00   -5.5710319178E+00
   -5.5555568314E+00   -5.5401675060E+00   -5.5248631375E+00   -5.5096430931E+00
   -5.4945067038E+00   -5.4794532810E+00   -5.4644820880E+00   -5.4495924473E+00
   -5.4347837547E+00   -5.4200553537E+00   -5.4054065786E+00   -5.3908366986E+00
   -5.3763451740E+00   -5.3619313789E+00   -5.3475946875E+00   -5.3333344116E+00
   -5.3191499732E+00   -5.3050408087E+00   -5.2910063215E+00   -5.2770458995E+00
   -5.2631588892E+00   -5.2493447980E+00   -5.2356030570E+00   -5.2219330975E+00
   -5.2083342944E+00   -5.1948061157E+00   -5.1813480542E+00   -5.1679595675E+00
   -5.1546401118E+00   -5.1413890616E+00   -5.1282059843E+00   -5.1150903629E+00
   -5.1020416803E+00   -5.0890593878E+00   -5.0761429528E+00   -5.0632919377E+00
   -5.0505058495E+00   -5.0377841950E+00   -5.0251264266E+00   -5.0125320904E+00
   -5.0000007465E+00   -4.9875319249E+00   -4.9751251554E+00   -4.9627798966E+00
   -4.9504957588E+00   -4.9382723038E+00   -4.9261090837E+00   -4.9140056457E+00
   -4.9019614726E+00   -4.8899762115E+00   -4.8780494352E+00   -4.8661807165E+00
   -4.8543696143E+00   -4.8426156538E+00   -4.8309184921E+00   -4.8192777218E+00
   -4.8076929355E+00   -4.7961637080E+00   -4.7846895952E+00   -4.7732702674E+00
   -4.7619053363E+00   -4.7505944134E+00   -4.7393370930E+00   -4.7281329505E+00
   -4.7169816731E+00   -4.7058828905E+00   -4.6948362324E+00   -4.6838413161E+00
   -4.6728977261E+00   -4.6620051696E+00   -4.6511632936E+00   -4.6403717451E+00
   -4.6296301678E+00   -4.6189381455E+00   -4.6082954084E+00   -4.5977016201E+00
   -4.5871564440E+00   -4.5766595435E+00   -4.5662105223E+00   -4.5558091071E+00
   -4.5454549866E+00   -4.5351478400E+00   -4.5248873465E+00   -4.5146731429E+00
   -4.5045049330E+00   -4.4943824373E+00   -4.4843053499E+00   -4.4742733649E+00
   -4.4642861555E+00   -4.4543433946E+00   -4.4444448367E+00   -4.4345901900E+00
   -4.4247791629E+00   -4.4150114636E+00   -4.4052867404E+00   -4.3956047698E+00
   -4.3859652781E+00   -4.3763679871E+00   -4.3668126189E+00   -4.3572988632E+00
   -4.3478264482E+00   -4.3383951406E+00   -4.3290046756E+00   -4.3196547878E+00
   -4.3103452121E+00   -4.3010756226E+00   -4.2918458268E+00   -4.2826555721E+00
   -4.2735046058E+00   -4.2643926751E+00   -4.2553195010E+00   -4.2462848270E+00
   -4.2372884467E+00   -4.2283301194E+00   -4.2194096039E+00   -4.2105266592E+00
   -4.2016809975E+00   -4.1928724209E+00   -4.1841007120E+00   -4.1753656411E+00
   -4.1666669784E+00   -4.1580044888E+00   -4.1493778966E+00   -4.1407870348E+00
   -4.1322316842E+00   -4.1237116258E+00   -4.1152266406E+00   -4.1067764911E+00
   -4.0983609412E+00   -4.0899798205E+00   -4.0816329202E+00   -4.0733200313E+00
   -4.0650409450E+00   -4.0567954257E+00   -4.0485832670E+00   -4.0404042984E+00
   -4.0322583209E+00   -4.0241451354E+00   -4.0160645428E+00   -4.0080163129E+00
   -4.0000002593E+00   -3.9920162155E+00   -3.9840639917E+00   -3.9761433980E+00
   -3.9682542445E+00   -3.9603963103E+00   -3.9525694199E+00   -3.9447734140E+00
   -3.9370081116E+00   -3.9292733318E+00   -3.9215688936E+00   -3.9138945881E+00
   -3.9062502426E+00   -3.8986357083E+00   -3.8910508127E+00   -3.8834953833E+00
   -3.8759692475E+00   -3.8684722119E+00   -3.8610040982E+00   -3.8535647714E+00
   -3.8461540672E+00   -3.8387718210E+00   -3.8314178682E+00   -3.8240920339E+00
   -3.8167941268E+00   -3.8095240287E+00   -3.8022815828E+00   -3.7950666320E+00
   -3.7878790196E+00   -3.7807185888E+00   -3.7735851380E+00   -3.7664785586E+00
   -3.7593987042E+00   -3.7523454251E+00   -3.7453185718E+00   -3.7383179948E+00
   -3.7313435167E+00   -3.7243950004E+00   -3.7174723225E+00   -3.7105753405E+00
   -3.7037039119E+00   -3.6968578940E+00   -3.6900371366E+00   -3.6832414678E+00
   -3.6764707895E+00   -3.6697249658E+00   -3.6630038608E+00   -3.6563073385E+00
   -3.6496352629E+00   -3.6429874686E+00   -3.6363638380E+00   -3.6297642567E+00
   -3.6231885951E+00   -3.6166367236E+00   -3.6101085126E+00   -3.6036038289E+00
   -3.5971225072E+00   -3.5906644635E+00   -3.5842295743E+00   -3.5778177160E+00
   -3.5714287651E+00   -3.5650625979E+00   -3.5587190728E+00   -3.5523980620E+00
   -3.5460994724E+00   -3.5398231860E+00   -3.5335690851E+00   -3.5273370519E+00
   -3.5211269686E+00   -3.5149386888E+00   -3.5087721137E+00   -3.5026271441E+00
   -3.4965036677E+00   -3.4904015722E+00   -3.4843207453E+00   -3.4782610747E+00
   -3.4722224130E+00   -3.4662046818E+00   -3.4602077794E+00   -3.4542315989E+00
   -3.4482760331E+00   -3.4423409750E+00   -3.4364263174E+00   -3.4305319153E+00
   -3.4246577029E+00   -3.4188035793E+00   -3.4129694427E+00   -3.4071551907E+00
   -3.4013607215E+00   -3.3955859328E+00   -3.3898306849E+00   -3.3840949171E+00
   -3.3783785328E+00   -3.3726814348E+00   -3.3670035255E+00   -3.3613447079E+00
   -3.3557048843E+00   -3.3500839234E+00   -3.3444817625E+00   -3.3388983124E+00
   -3.3333334801E+00   -3.3277871728E+00
  </PP_LOCAL>
 <PP_NONLOCAL>
   <PP_BETA.1
       type="real"
       size=" 602"
       columns="4"
       index="1"
       angular_momentum="0"
       cutoff_radius_index=" 250"
       cutoff_radius="    2.4900000000E+00" >
    0.0000000000E+00    5.3813871364E-02    1.0755425894E-01    1.6114773786E-01
    2.1452100148E-01    2.6760092134E-01    3.2031460828E-01    3.7258947486E-01
    4.2435329957E-01    4.7553429302E-01    5.2606116654E-01    5.7586320321E-01
    6.2487033184E-01    6.7301320390E-01    7.2022327361E-01    7.6643288144E-01
    8.1157534097E-01    8.5558502924E-01    8.9839748068E-01    9.3994948446E-01
    9.8017918525E-01    1.0190261875E+00    1.0564316625E+00    1.0923384592E+00
    1.1266912164E+00    1.1594364793E+00    1.1905228163E+00    1.2199009393E+00
    1.2475238239E+00    1.2733468314E+00    1.2973278314E+00    1.3194273241E+00
    1.3396085612E+00    1.3578376674E+00    1.3740837597E+00    1.3883190613E+00
    1.4005190192E+00    1.4106624111E+00    1.4187314501E+00    1.4247118901E+00
    1.4285931168E+00    1.4303682375E+00    1.4300341635E+00    1.4275916839E+00
    1.4230455323E+00    1.4164044438E+00    1.4076812029E+00    1.3968926812E+00
    1.3840598626E+00    1.3692078654E+00    1.3523659430E+00    1.3335674751E+00
    1.3128499504E+00    1.2902549388E+00    1.2658280372E+00    1.2396188210E+00
    1.2116807665E+00    1.1820711695E+00    1.1508510464E+00    1.1180850221E+00
    1.0838412104E+00    1.0481910633E+00    1.0112092440E+00    9.7297343564E-01
    9.3356417975E-01    8.9306470968E-01    8.5156070716E-01    8.0914011919E-01
    7.6589294475E-01    7.2191102482E-01    6.7728772384E-01    6.3211776166E-01
    5.8649693831E-01    5.4052187448E-01    4.9428977058E-01    4.4789807473E-01
    4.0144424980E-01    3.5502550712E-01    3.0873852058E-01    2.6267914990E-01
    2.1694216470E-01    1.7162097052E-01    1.2680733789E-01    8.2591135437E-02
    3.9060068294E-02   -3.7005772890E-03   -4.5608181994E-02   -8.6583033112E-02
   -1.2654855485E-01   -1.6543152824E-01   -2.0316229971E-01   -2.3967497735E-01
   -2.7490761398E-01   -3.0880237614E-01   -3.4130569821E-01   -3.7236842098E-01