<UPF version="2.0.1">
  <PP_INFO>

 This pseudopotential file has been produced using the code
 ONCVPSP  (Optimized Norm-Conservinng Vanderbilt PSeudopotential)
 scalar-relativistic version 2.1.1, 03/26/2014 by D. R. Hamann
 The code is available through a link at URL www.mat-simresearch.com.
 Documentation with the package provides a full discription of the
 input data below.


 While it is not required under the terms of the GNU GPL, it is
 suggested that you cite D. R. Hamann, Phys. Rev. B 88, 085117 (2013)
 in any publication using these pseudopotentials.


 Copyright 2015 The Regents of the University of California
 
 This work is licensed under the Creative Commons Attribution-ShareAlike 
 4.0 International License. To view a copy of this license, visit 
 http://creativecommons.org/licenses/by-sa/4.0/ or send a letter to 
 Creative Commons, PO Box 1866, Mountain View, CA 94042, USA.
 
 This pseudopotential is part of the Schlipf-Gygi norm-conserving 
 pseudopotential library. Its construction parameters were tuned to 
 reproduce materials of a training set with very high accuracy and 
 should be suitable as a general purpose pseudopotential to treat a 
 variety of different compounds. For details of the construction and 
 testing of the pseudopotential please refer to:
 
 [insert reference to paper here]
 
 We kindly ask that you include this reference in all publications 
 associated to this pseudopotential.


    <PP_INPUTFILE>
# ATOM AND REFERENCE CONFIGURATION
# atsym  z    nc    nv    iexc   psfile
  Cd 48.00     6     4     4      upf
#
#   n    l    f        energy (Ha)
    1    0    2.00
    2    0    2.00
    2    1    6.00
    3    0    2.00
    3    1    6.00
    3    2   10.00
    4    0    2.00
    4    1    6.00
    5    0    2.00
    4    2   10.00
#
# PSEUDOPOTENTIAL AND OPTIMIZATION
# lmax
    2
#
#   l,   rc,     ep,   ncon, nbas, qcut
    0   2.33990  -3.89242    5    8   6.31277
    1   2.66799  -2.46101    5    8   6.26850
    2   3.04207  -0.43118    5    8   5.75293
#
# LOCAL POTENTIAL
# lloc, lpopt,  rc(5),   dvloc0
    4    5   1.67550      0.00000
#
# VANDERBILT-KLEINMAN-BYLANDER PROJECTORs
# l, nproj, debl
    0    2   3.68443
    1    2   2.41752
    2    2   1.20956
#
# MODEL CORE CHARGE
# icmod, fcfact
    0   0.00000
#
# LOG DERIVATIVE ANALYSIS
# epsh1, epsh2, depsh
   -5.00    3.00    0.02
#
# OUTPUT GRID
# rlmax, drl
    6.00    0.01
#
# TEST CONFIGURATIONS
# ncnf
    0
# nvcnf
#   n    l    f
    </PP_INPUTFILE>
  </PP_INFO>
  <!--                               -->
  <!-- END OF HUMAN READABLE SECTION -->
  <!--                               -->
    <PP_HEADER
       generated="Generated using ONCVPSP code by D. R. Hamann"
       author="Martin Schlipf and Francois Gygi"
       date="150105"
       comment=""
       element="Cd"
       pseudo_type="NC"
       relativistic="scalar"
       is_ultrasoft="F"
       is_paw="F"
       is_coulomb="F"
       has_so="F"
       has_wfc="F"
       has_gipaw="F"
       core_correction="F"
       functional="PBE"
       z_valence="   20.00"
       total_psenergy="  -1.55408940009E+02"
       rho_cutoff="   6.01000000000E+00"
       l_max="2"
       l_local="-1"
       mesh_size="   602"
       number_of_wfc="0"
       number_of_proj="6"/>
 <PP_MESH>
   <PP_R type="real"  size=" 602" columns="8">
    0.0000    0.0100    0.0200    0.0300    0.0400    0.0500    0.0600    0.0700
    0.0800    0.0900    0.1000    0.1100    0.1200    0.1300    0.1400    0.1500
    0.1600    0.1700    0.1800    0.1900    0.2000    0.2100    0.2200    0.2300
    0.2400    0.2500    0.2600    0.2700    0.2800    0.2900    0.3000    0.3100
    0.3200    0.3300    0.3400    0.3500    0.3600    0.3700    0.3800    0.3900
    0.4000    0.4100    0.4200    0.4300    0.4400    0.4500    0.4600    0.4700
    0.4800    0.4900    0.5000    0.5100    0.5200    0.5300    0.5400    0.5500
    0.5600    0.5700    0.5800    0.5900    0.6000    0.6100    0.6200    0.6300
    0.6400    0.6500    0.6600    0.6700    0.6800    0.6900    0.7000    0.7100
    0.7200    0.7300    0.7400    0.7500    0.7600    0.7700    0.7800    0.7900
    0.8000    0.8100    0.8200    0.8300    0.8400    0.8500    0.8600    0.8700
    0.8800    0.8900    0.9000    0.9100    0.9200    0.9300    0.9400    0.9500
    0.9600    0.9700    0.9800    0.9900    1.0000    1.0100    1.0200    1.0300
    1.0400    1.0500    1.0600    1.0700    1.0800    1.0900    1.1000    1.1100
    1.1200    1.1300    1.1400    1.1500    1.1600    1.1700    1.1800    1.1900
    1.2000    1.2100    1.2200    1.2300    1.2400    1.2500    1.2600    1.2700
    1.2800    1.2900    1.3000    1.3100    1.3200    1.3300    1.3400    1.3500
    1.3600    1.3700    1.3800    1.3900    1.4000    1.4100    1.4200    1.4300
    1.4400    1.4500    1.4600    1.4700    1.4800    1.4900    1.5000    1.5100
    1.5200    1.5300    1.5400    1.5500    1.5600    1.5700    1.5800    1.5900
    1.6000    1.6100    1.6200    1.6300    1.6400    1.6500    1.6600    1.6700
    1.6800    1.6900    1.7000    1.7100    1.7200    1.7300    1.7400    1.7500
    1.7600    1.7700    1.7800    1.7900    1.8000    1.8100    1.8200    1.8300
    1.8400    1.8500    1.8600    1.8700    1.8800    1.8900    1.9000    1.9100
    1.9200    1.9300    1.9400    1.9500    1.9600    1.9700    1.9800    1.9900
    2.0000    2.0100    2.0200    2.0300    2.0400    2.0500    2.0600    2.0700
    2.0800    2.0900    2.1000    2.1100    2.1200    2.1300    2.1400    2.1500
    2.1600    2.1700    2.1800    2.1900    2.2000    2.2100    2.2200    2.2300
    2.2400    2.2500    2.2600    2.2700    2.2800    2.2900    2.3000    2.3100
    2.3200    2.3300    2.3400    2.3500    2.3600    2.3700    2.3800    2.3900
    2.4000    2.4100    2.4200    2.4300    2.4400    2.4500    2.4600    2.4700
    2.4800    2.4900    2.5000    2.5100    2.5200    2.5300    2.5400    2.5500
    2.5600    2.5700    2.5800    2.5900    2.6000    2.6100    2.6200    2.6300
    2.6400    2.6500    2.6600    2.6700    2.6800    2.6900    2.7000    2.7100
    2.7200    2.7300    2.7400    2.7500    2.7600    2.7700    2.7800    2.7900
    2.8000    2.8100    2.8200    2.8300    2.8400    2.8500    2.8600    2.8700
    2.8800    2.8900    2.9000    2.9100    2.9200    2.9300    2.9400    2.9500
    2.9600    2.9700    2.9800    2.9900    3.0000    3.0100    3.0200    3.0300
    3.0400    3.0500    3.0600    3.0700    3.0800    3.0900    3.1000    3.1100
    3.1200    3.1300    3.1400    3.1500    3.1600    3.1700    3.1800    3.1900
    3.2000    3.2100    3.2200    3.2300    3.2400    3.2500    3.2600    3.2700
    3.2800    3.2900    3.3000    3.3100    3.3200    3.3300    3.3400    3.3500
    3.3600    3.3700    3.3800    3.3900    3.4000    3.4100    3.4200    3.4300
    3.4400    3.4500    3.4600    3.4700    3.4800    3.4900    3.5000    3.5100
    3.5200    3.5300    3.5400    3.5500    3.5600    3.5700    3.5800    3.5900
    3.6000    3.6100    3.6200    3.6300    3.6400    3.6500    3.6600    3.6700
    3.6800    3.6900    3.7000    3.7100    3.7200    3.7300    3.7400    3.7500
    3.7600    3.7700    3.7800    3.7900    3.8000    3.8100    3.8200    3.8300
    3.8400    3.8500    3.8600    3.8700    3.8800    3.8900    3.9000    3.9100
    3.9200    3.9300    3.9400    3.9500    3.9600    3.9700    3.9800    3.9900
    4.0000    4.0100    4.0200    4.0300    4.0400    4.0500    4.0600    4.0700
    4.0800    4.0900    4.1000    4.1100    4.1200    4.1300    4.1400    4.1500
    4.1600    4.1700    4.1800    4.1900    4.2000    4.2100    4.2200    4.2300
    4.2400    4.2500    4.2600    4.2700    4.2800    4.2900    4.3000    4.3100
    4.3200    4.3300    4.3400    4.3500    4.3600    4.3700    4.3800    4.3900
    4.4000    4.4100    4.4200    4.4300    4.4400    4.4500    4.4600    4.4700
    4.4800    4.4900    4.5000    4.5100    4.5200    4.5300    4.5400    4.5500
    4.5600    4.5700    4.5800    4.5900    4.6000    4.6100    4.6200    4.6300
    4.6400    4.6500    4.6600    4.6700    4.6800    4.6900    4.7000    4.7100
    4.7200    4.7300    4.7400    4.7500    4.7600    4.7700    4.7800    4.7900
    4.8000    4.8100    4.8200    4.8300    4.8400    4.8500    4.8600    4.8700
    4.8800    4.8900    4.9000    4.9100    4.9200    4.9300    4.9400    4.9500
    4.9600    4.9700    4.9800    4.9900    5.0000    5.0100    5.0200    5.0300
    5.0400    5.0500    5.0600    5.0700    5.0800    5.0900    5.1000    5.1100
    5.1200    5.1300    5.1400    5.1500    5.1600    5.1700    5.1800    5.1900
    5.2000    5.2100    5.2200    5.2300    5.2400    5.2500    5.2600    5.2700
    5.2800    5.2900    5.3000    5.3100    5.3200    5.3300    5.3400    5.3500
    5.3600    5.3700    5.3800    5.3900    5.4000    5.4100    5.4200    5.4300
    5.4400    5.4500    5.4600    5.4700    5.4800    5.4900    5.5000    5.5100
    5.5200    5.5300    5.5400    5.5500    5.5600    5.5700    5.5800    5.5900
    5.6000    5.6100    5.6200    5.6300    5.6400    5.6500    5.6600    5.6700
    5.6800    5.6900    5.7000    5.7100    5.7200    5.7300    5.7400    5.7500
    5.7600    5.7700    5.7800    5.7900    5.8000    5.8100    5.8200    5.8300
    5.8400    5.8500    5.8600    5.8700    5.8800    5.8900    5.9000    5.9100
    5.9200    5.9300    5.9400    5.9500    5.9600    5.9700    5.9800    5.9900
    6.0000    6.0100
   </PP_R>
   <PP_RAB type="real"  size=" 602" columns="8">
    0.0100    0.0100    0.0100    0.0100    0.0100    0.0100    0.0100    0.0100
    0.0100    0.0100    0.0100    0.0100    0.0100    0.0100    0.0100    0.0100
    0.0100    0.0100    0.0100    0.0100    0.0100    0.0100    0.0100    0.0100
    0.0100    0.0100    0.0100    0.0100    0.0100    0.0100    0.0100    0.0100
    0.0100    0.0100    0.0100    0.0100    0.0100    0.0100    0.0100    0.0100
    0.0100    0.0100    0.0100    0.0100    0.0100    0.0100    0.0100    0.0100
    0.0100    0.0100    0.0100    0.0100    0.0100    0.0100    0.0100    0.0100
    0.0100    0.0100    0.0100    0.0100    0.0100    0.0100    0.0100    0.0100
    0.0100    0.0100    0.0100    0.0100    0.0100    0.0100    0.0100    0.0100
    0.0100    0.0100    0.0100    0.0100    0.0100    0.0100    0.0100    0.0100
    0.0100    0.0100    0.0100    0.0100    0.0100    0.0100    0.0100    0.0100
    0.0100    0.0100    0.0100    0.0100    0.0100    0.0100    0.0100    0.0100
    0.0100    0.0100    0.0100    0.0100    0.0100    0.0100    0.0100    0.0100
    0.0100    0.0100    0.0100    0.0100    0.0100    0.0100    0.0100    0.0100
    0.0100    0.0100    0.0100    0.0100    0.0100    0.0100    0.0100    0.0100
    0.0100    0.0100    0.0100    0.0100    0.0100    0.0100    0.0100    0.0100
    0.0100    0.0100    0.0100    0.0100    0.0100    0.0100    0.0100    0.0100
    0.0100    0.0100    0.0100    0.0100    0.0100    0.0100    0.0100    0.0100
    0.0100    0.0100    0.0100    0.0100    0.0100    0.0100    0.0100    0.0100
    0.0100    0.0100    0.0100    0.0100    0.0100    0.0100    0.0100    0.0100
    0.0100    0.0100    0.0100    0.0100    0.0100    0.0100    0.0100    0.0100
    0.0100    0.0100    0.0100    0.0100    0.0100    0.0100    0.0100    0.0100
    0.0100    0.0100    0.0100    0.0100    0.0100    0.0100    0.0100    0.0100
    0.0100    0.0100    0.0100    0.0100    0.0100    0.0100    0.0100    0.0100
    0.0100    0.0100    0.0100    0.0100    0.0100    0.0100    0.0100    0.0100
    0.0100    0.0100    0.0100    0.0100    0.0100    0.0100    0.0100    0.0100
    0.0100    0.0100    0.0100    0.0100    0.0100    0.0100    0.0100    0.0100
    0.0100    0.0100    0.0100    0.0100    0.0100    0.0100    0.0100    0.0100
    0.0100    0.0100    0.0100    0.0100    0.0100    0.0100    0.0100    0.0100
    0.0100    0.0100    0.0100    0.0100    0.0100    0.0100    0.0100    0.0100
    0.0100    0.0100    0.0100    0.0100    0.0100    0.0100    0.0100    0.0100
    0.0100    0.0100    0.0100    0.0100    0.0100    0.0100    0.0100    0.0100
    0.0100    0.0100    0.0100    0.0100    0.0100    0.0100    0.0100    0.0100
    0.0100    0.0100    0.0100    0.0100    0.0100    0.0100    0.0100    0.0100
    0.0100    0.0100    0.0100    0.0100    0.0100    0.0100    0.0100    0.0100
    0.0100    0.0100    0.0100    0.0100    0.0100    0.0100    0.0100    0.0100
    0.0100    0.0100    0.0100    0.0100    0.0100    0.0100    0.0100    0.0100
    0.0100    0.0100    0.0100    0.0100    0.0100    0.0100    0.0100    0.0100
    0.0100    0.0100    0.0100    0.0100    0.0100    0.0100    0.0100    0.0100
    0.0100    0.0100    0.0100    0.0100    0.0100    0.0100    0.0100    0.0100
    0.0100    0.0100    0.0100    0.0100    0.0100    0.0100    0.0100    0.0100
    0.0100    0.0100    0.0100    0.0100    0.0100    0.0100    0.0100    0.0100
    0.0100    0.0100    0.0100    0.0100    0.0100    0.0100    0.0100    0.0100
    0.0100    0.0100    0.0100    0.0100    0.0100    0.0100    0.0100    0.0100
    0.0100    0.0100    0.0100    0.0100    0.0100    0.0100    0.0100    0.0100
    0.0100    0.0100    0.0100    0.0100    0.0100    0.0100    0.0100    0.0100
    0.0100    0.0100    0.0100    0.0100    0.0100    0.0100    0.0100    0.0100
    0.0100    0.0100    0.0100    0.0100    0.0100    0.0100    0.0100    0.0100
    0.0100    0.0100    0.0100    0.0100    0.0100    0.0100    0.0100    0.0100
    0.0100    0.0100    0.0100    0.0100    0.0100    0.0100    0.0100    0.0100
    0.0100    0.0100    0.0100    0.0100    0.0100    0.0100    0.0100    0.0100
    0.0100    0.0100    0.0100    0.0100    0.0100    0.0100    0.0100    0.0100
    0.0100    0.0100    0.0100    0.0100    0.0100    0.0100    0.0100    0.0100
    0.0100    0.0100    0.0100    0.0100    0.0100    0.0100    0.0100    0.0100
    0.0100    0.0100    0.0100    0.0100    0.0100    0.0100    0.0100    0.0100
    0.0100    0.0100    0.0100    0.0100    0.0100    0.0100    0.0100    0.0100
    0.0100    0.0100    0.0100    0.0100    0.0100    0.0100    0.0100    0.0100
    0.0100    0.0100    0.0100    0.0100    0.0100    0.0100    0.0100    0.0100
    0.0100    0.0100    0.0100    0.0100    0.0100    0.0100    0.0100    0.0100
    0.0100    0.0100    0.0100    0.0100    0.0100    0.0100    0.0100    0.0100
    0.0100    0.0100    0.0100    0.0100    0.0100    0.0100    0.0100    0.0100
    0.0100    0.0100    0.0100    0.0100    0.0100    0.0100    0.0100    0.0100
    0.0100    0.0100    0.0100    0.0100    0.0100    0.0100    0.0100    0.0100
    0.0100    0.0100    0.0100    0.0100    0.0100    0.0100    0.0100    0.0100
    0.0100    0.0100    0.0100    0.0100    0.0100    0.0100    0.0100    0.0100
    0.0100    0.0100    0.0100    0.0100    0.0100    0.0100    0.0100    0.0100
    0.0100    0.0100    0.0100    0.0100    0.0100    0.0100    0.0100    0.0100
    0.0100    0.0100    0.0100    0.0100    0.0100    0.0100    0.0100    0.0100
    0.0100    0.0100    0.0100    0.0100    0.0100    0.0100    0.0100    0.0100
    0.0100    0.0100    0.0100    0.0100    0.0100    0.0100    0.0100    0.0100
    0.0100    0.0100    0.0100    0.0100    0.0100    0.0100    0.0100    0.0100
    0.0100    0.0100    0.0100    0.0100    0.0100    0.0100    0.0100    0.0100
    0.0100    0.0100    0.0100    0.0100    0.0100    0.0100    0.0100    0.0100
    0.0100    0.0100    0.0100    0.0100    0.0100    0.0100    0.0100    0.0100
    0.0100    0.0100    0.0100    0.0100    0.0100    0.0100    0.0100    0.0100
    0.0100    0.0100
   </PP_RAB>
 </PP_MESH>
  <PP_LOCAL type="real"  size=" 602" columns="4">
   -4.9226046060E+01   -4.9224577680E+01   -4.9220185014E+01   -4.9212854388E+01
   -4.9202572130E+01   -4.9189320241E+01   -4.9173077440E+01   -4.9153820347E+01
   -4.9131524756E+01   -4.9106166879E+01   -4.9077724514E+01   -4.9046178065E+01
   -4.9011511376E+01   -4.8973712343E+01   -4.8932773322E+01   -4.8888691310E+01
   -4.8841467950E+01   -4.8791109358E+01   -4.8737625834E+01   -4.8681031468E+01
   -4.8621343678E+01   -4.8558582725E+01   -4.8492771207E+01   -4.8423933565E+01
   -4.8352095625E+01   -4.8277284163E+01   -4.8199526525E+01   -4.8118850295E+01
   -4.8035283009E+01   -4.7948851922E+01   -4.7859583821E+01   -4.7767504884E+01
   -4.7672640574E+01   -4.7575015577E+01   -4.7474653767E+01   -4.7371578195E+01
   -4.7265811114E+01   -4.7157374010E+01   -4.7046287657E+01   -4.6932572189E+01
   -4.6816247175E+01   -4.6697331710E+01   -4.6575844508E+01   -4.6451804001E+01
   -4.6325228443E+01   -4.6196136014E+01   -4.6064544926E+01   -4.5930473525E+01
   -4.5793940398E+01   -4.5654964470E+01   -4.5513565099E+01   -4.5369762184E+01
   -4.5223576237E+01   -4.5075028473E+01   -4.4924140907E+01   -4.4770936395E+01
   -4.4615438743E+01   -4.4457672727E+01   -4.4297664195E+01   -4.4135440067E+01
   -4.3971028439E+01   -4.3804458551E+01   -4.3635760889E+01   -4.3464967167E+01
   -4.3292110327E+01   -4.3117224633E+01   -4.2940345601E+01   -4.2761510013E+01
   -4.2580755950E+01   -4.2398122767E+01   -4.2213651068E+01   -4.2027382691E+01
   -4.1839360683E+01   -4.1649629318E+01   -4.1458234018E+01   -4.1265221337E+01
   -4.1070638929E+01   -4.0874535512E+01   -4.0676960825E+01   -4.0477965588E+01
   -4.0277601458E+01   -4.0075920989E+01   -3.9872977585E+01   -3.9668825448E+01
   -3.9463519531E+01   -3.9257115491E+01   -3.9049669640E+01   -3.8841238895E+01
   -3.8631880725E+01   -3.8421653105E+01   -3.8210614464E+01   -3.7998823638E+01
   -3.7786339814E+01   -3.7573222484E+01   -3.7359531390E+01   -3.7145326480E+01
   -3.6930667856E+01   -3.6715615725E+01   -3.6500230347E+01   -3.6284571997E+01
   -3.6068700906E+01   -3.5852677217E+01   -3.5636560932E+01   -3.5420411874E+01
   -3.5204289635E+01   -3.4988253559E+01   -3.4772362628E+01   -3.4556675463E+01
   -3.4341250278E+01   -3.4126144841E+01   -3.3911416461E+01   -3.3697121801E+01
   -3.3483316979E+01   -3.3270057492E+01   -3.3057398262E+01   -3.2845393295E+01
   -3.2634095922E+01   -3.2423558747E+01   -3.2213833536E+01   -3.2004970997E+01
   -3.1797021018E+01   -3.1590032767E+01   -3.1384053989E+01   -3.1179131542E+01
   -3.0975311477E+01   -3.0772638377E+01   -3.0571155672E+01   -3.0370905991E+01
   -3.0171930341E+01   -2.9974268415E+01   -2.9777959155E+01   -2.9583039532E+01
   -2.9389545230E+01   -2.9197511281E+01   -2.9006970099E+01   -2.8817953336E+01
   -2.8630491333E+01   -2.8444611962E+01   -2.8260342652E+01   -2.8077708359E+01
   -2.7896732478E+01   -2.7717437651E+01   -2.7539843177E+01   -2.7363968264E+01
   -2.7189829182E+01   -2.7017440710E+01   -2.6846816504E+01   -2.6677966697E+01
   -2.6510901921E+01   -2.6345628245E+01   -2.6182151947E+01   -2.6020476067E+01
   -2.5860602010E+01   -2.5702529746E+01   -2.5546255722E+01   -2.5391776739E+01
   -2.5239084337E+01   -2.5088171853E+01   -2.4939026382E+01   -2.4791636870E+01
   -2.4645986767E+01   -2.4502060377E+01   -2.4359837470E+01   -2.4219297800E+01
   -2.4080417415E+01   -2.3943171672E+01   -2.3807532801E+01   -2.3673472044E+01
   -2.3540957473E+01   -2.3409957457E+01   -2.3280438798E+01   -2.3152369364E+01
   -2.3025717593E+01   -2.2900452318E+01   -2.2776543417E+01   -2.2653960869E+01
   -2.2532676180E+01   -2.2412660507E+01   -2.2293887253E+01   -2.2176328768E+01
   -2.2059960607E+01   -2.1944756310E+01   -2.1830693571E+01   -2.1717747791E+01
   -2.1605898166E+01   -2.1495122473E+01   -2.1385401116E+01   -2.1276714491E+01
   -2.1169044006E+01   -2.1062372754E+01   -2.0956683014E+01   -2.0851960407E+01
   -2.0748188253E+01   -2.0645353867E+01   -2.0543442752E+01   -2.0442442565E+01
   -2.0342341158E+01   -2.0243126451E+01   -2.0144788200E+01   -2.0047314719E+01
   -1.9950696786E+01   -1.9854924070E+01   -1.9759987165E+01   -1.9665876949E+01
   -1.9572584039E+01   -1.9480099815E+01   -1.9388415294E+01   -1.9297521760E+01
   -1.9207410515E+01   -1.9118072809E+01   -1.9029499783E+01   -1.8941682775E+01
   -1.8854612689E+01   -1.8768280555E+01   -1.8682677376E+01   -1.8597793721E+01
   -1.8513620486E+01   -1.8430148157E+01   -1.8347367229E+01   -1.8265268273E+01
   -1.8183841684E+01   -1.8103077843E+01   -1.8022967291E+01   -1.7943500670E+01
   -1.7864668210E+01   -1.7786461137E+01   -1.7708870263E+01   -1.7631886325E+01
   -1.7555501419E+01   -1.7479706587E+01   -1.7404493884E+01   -1.7329856206E+01
   -1.7255785052E+01   -1.7182274254E+01   -1.7109317483E+01   -1.7036906984E+01
   -1.6965038404E+01   -1.6893705936E+01   -1.6822903520E+01   -1.6752627642E+01
   -1.6682873358E+01   -1.6613636165E+01   -1.6544913203E+01   -1.6476700406E+01
   -1.6408994472E+01   -1.6341792980E+01   -1.6275092663E+01   -1.6208890958E+01
   -1.6143185683E+01   -1.6077974207E+01   -1.6013254272E+01   -1.5949023736E+01
   -1.5885280376E+01   -1.5822021910E+01   -1.5759246044E+01   -1.5696950701E+01
   -1.5635133384E+01   -1.5573791473E+01   -1.5512922780E+01   -1.5452524525E+01
   -1.5392593631E+01   -1.5333127576E+01   -1.5274123318E+01   -1.5215577245E+01
   -1.5157486347E+01   -1.5099847374E+01   -1.5042656172E+01   -1.4985909170E+01
   -1.4929602955E+01   -1.4873732883E+01   -1.4818294827E+01   -1.4763285194E+01
   -1.4708698990E+01   -1.4654531750E+01   -1.4600779309E+01   -1.4547436823E+01
   -1.4494499489E+01   -1.4441962698E+01   -1.4389821702E+01   -1.4338071586E+01
   -1.4286707531E+01   -1.4235724707E+01   -1.4185118339E+01   -1.4134883631E+01
   -1.4085015589E+01   -1.4035509669E+01   -1.3986361255E+01   -1.3937565501E+01
   -1.3889117758E+01   -1.3841013858E+01   -1.3793249373E+01   -1.3745819319E+01
   -1.3698720096E+01   -1.3651947605E+01   -1.3605497378E+01   -1.3559365447E+01
   -1.3513548418E+01   -1.3468042529E+01   -1.3422843313E+01   -1.3377948044E+01
   -1.3333353367E+01   -1.3289055593E+01   -1.3245051333E+01   -1.3201338008E+01
   -1.3157912591E+01   -1.3114771594E+01   -1.3071912545E+01   -1.3029332823E+01
   -1.2987029635E+01   -1.2945000038E+01   -1.2903241690E+01   -1.2861751988E+01
   -1.2820528217E+01   -1.2779567797E+01   -1.2738868373E+01   -1.2698427452E+01
   -1.2658242343E+01   -1.2618310754E+01   -1.2578630395E+01   -1.2539198895E+01
   -1.2500013651E+01   -1.2461072605E+01   -1.2422373514E+01   -1.2383914094E+01
   -1.2345691895E+01   -1.2307704982E+01   -1.2269951202E+01   -1.2232428340E+01
   -1.2195134131E+01   -1.2158066707E+01   -1.2121224013E+01   -1.2084603920E+01
   -1.2048204307E+01   -1.2012023382E+01   -1.1976059185E+01   -1.1940309678E+01
   -1.1904772851E+01   -1.1869446995E+01   -1.1834330242E+01   -1.1799420647E+01
   -1.1764716288E+01   -1.1730215540E+01   -1.1695916621E+01   -1.1661817693E+01
   -1.1627916886E+01   -1.1594212668E+01   -1.1560703340E+01   -1.1527387174E+01
   -1.1494262328E+01   -1.1461327366E+01   -1.1428580671E+01   -1.1396020624E+01
   -1.1363645401E+01   -1.1331453655E+01   -1.1299443847E+01   -1.1267614434E+01
   -1.1235963713E+01   -1.1204490303E+01   -1.1173192782E+01   -1.1142069680E+01
   -1.1111119421E+01   -1.1080340567E+01   -1.1049731817E+01   -1.1019291770E+01
   -1.0989018984E+01   -1.0958911944E+01   -1.0928969474E+01   -1.0899190236E+01
   -1.0869572892E+01   -1.0840115944E+01   -1.0810818231E+01   -1.0781678510E+01
   -1.0752695508E+01   -1.0723867871E+01   -1.0695194309E+01   -1.0666673722E+01
   -1.0638304894E+01   -1.0610086608E+01   -1.0582017478E+01   -1.0554096498E+01
   -1.0526322522E+01   -1.0498694389E+01   -1.0471210866E+01   -1.0443870781E+01
   -1.0416673137E+01   -1.0389616830E+01   -1.0362700753E+01   -1.0335923655E+01
   -1.0309284589E+01   -1.0282782531E+01   -1.0256416427E+01   -1.0230185190E+01
   -1.0204087670E+01   -1.0178123001E+01   -1.0152290178E+01   -1.0126588198E+01
   -1.0101015967E+01   -1.0075572507E+01   -1.0050256944E+01   -1.0025068321E+01
   -1.0000005680E+01   -9.9750679368E+00   -9.9502542520E+00   -9.9255637531E+00
   -9.9009955268E+00   -9.8765486600E+00   -9.8522220869E+00   -9.8280150795E+00
   -9.8039267744E+00   -9.7799563009E+00   -9.7561027728E+00   -9.7323651972E+00
   -9.7087428850E+00   -9.6852350059E+00   -9.6618407300E+00   -9.6385591991E+00
   -9.6153894912E+00   -9.5923309409E+00   -9.5693827568E+00   -9.5465441474E+00
   -9.5238142908E+00   -9.5011923126E+00   -9.4786775786E+00   -9.4562693340E+00
   -9.4339668243E+00   -9.4117692708E+00   -9.3896758256E+00   -9.3676858919E+00
   -9.3457987503E+00   -9.3240136815E+00   -9.3023299566E+00   -9.2807467344E+00
   -9.2592634618E+00   -9.2378794529E+00   -9.2165940217E+00   -9.1954064826E+00
   -9.1743160235E+00   -9.1533220991E+00   -9.1324240694E+00   -9.1116212803E+00
   -9.0909130780E+00   -9.0702987143E+00   -9.0497776056E+00   -9.0293491727E+00
   -9.0090127920E+00   -8.9887678402E+00   -8.9686136395E+00   -8.9485495507E+00
   -8.9285750605E+00   -8.9086895745E+00   -8.8888924984E+00   -8.8691832307E+00
   -8.8495610625E+00   -8.8300255495E+00   -8.8105761251E+00   -8.7912122225E+00
   -8.7719332750E+00   -8.7527386335E+00   -8.7336277835E+00   -8.7146002313E+00
   -8.6956554367E+00   -8.6767928593E+00   -8.6580119379E+00   -8.6393120531E+00
   -8.6206927934E+00   -8.6021536438E+00   -8.5836940891E+00   -8.5653136142E+00
   -8.5470116276E+00   -8.5287876582E+00   -8.5106412618E+00   -8.4925719471E+00
   -8.4745792232E+00   -8.4566625971E+00   -8.4388214635E+00   -8.4210554699E+00
   -8.4033641481E+00   -8.3857470299E+00   -8.3682036471E+00   -8.3507334914E+00
   -8.3333360642E+00   -8.3160109964E+00   -8.2987578415E+00   -8.2815761532E+00
   -8.2644654850E+00   -8.2474253224E+00   -8.2304552523E+00   -8.2135548958E+00
   -8.1967238272E+00   -8.1799616210E+00   -8.1632678515E+00   -8.1466420064E+00
   -8.1300837371E+00   -8.1135926625E+00   -8.0971683770E+00   -8.0808104747E+00
   -8.0645185498E+00   -8.0482920995E+00   -8.0321308204E+00   -8.0160343369E+00
   -8.0000022620E+00   -7.9840342090E+00   -7.9681297908E+00   -7.9522885212E+00
   -7.9365101235E+00   -7.9207942347E+00   -7.9051404860E+00   -7.8895485086E+00
   -7.8740179335E+00   -7.8585482972E+00   -7.8431393326E+00   -7.8277906965E+00
   -7.8125020371E+00   -7.7972730029E+00   -7.7821032421E+00   -7.7669923199E+00
   -7.7519399628E+00   -7.7369458537E+00   -7.7220096572E+00   -7.7071310381E+00
   -7.6923096612E+00   -7.6775451261E+00   -7.6628371379E+00   -7.6481854114E+00
   -7.6335896269E+00   -7.6190494649E+00   -7.6045646056E+00   -7.5901346895E+00
   -7.5757593853E+00   -7.5614384455E+00   -7.5471715654E+00   -7.5329584402E+00
   -7.5187987651E+00   -7.5046922267E+00   -7.4906384448E+00   -7.4766372139E+00
   -7.4626882433E+00   -7.4487912427E+00   -7.4349459213E+00   -7.4211519886E+00
   -7.4074090899E+00   -7.3937169794E+00   -7.3800754086E+00   -7.3664841004E+00
   -7.3529427778E+00   -7.3394511638E+00   -7.3260089610E+00   -7.3126158455E+00
   -7.2992716231E+00   -7.2859760294E+00   -7.2727288005E+00   -7.2595296723E+00
   -7.2463783805E+00   -7.2332746016E+00   -7.2202181101E+00   -7.2072086830E+00
   -7.1942460685E+00   -7.1813300149E+00   -7.1684602702E+00   -7.1556365787E+00
   -7.1428586118E+00   -7.1301262104E+00   -7.1174391345E+00   -7.1047971440E+00
   -7.0921999988E+00   -7.0796474588E+00   -7.0671392552E+00   -7.0546751248E+00
   -7.0422548940E+00   -7.0298783340E+00   -7.0175452159E+00   -7.0052553108E+00
   -6.9930083898E+00   -6.9808041786E+00   -6.9686424623E+00   -6.9565230598E+00
   -6.9444457527E+00   -6.9324103228E+00   -6.9204165520E+00   -6.9084642219E+00
   -6.8965530597E+00   -6.8846828828E+00   -6.8728535089E+00   -6.8610647298E+00
   -6.8493163376E+00   -6.8376081241E+00   -6.8259398813E+00   -6.8143113440E+00
   -6.8027223468E+00   -6.7911727126E+00   -6.7796622431E+00   -6.7681907399E+00
   -6.7567580047E+00   -6.7453638390E+00   -6.7340079913E+00   -6.7226902992E+00
   -6.7114105969E+00   -6.7001686954E+00   -6.6889644056E+00   -6.6777975383E+00
   -6.6666679043E+00   -6.6555752716E+00
  </PP_LOCAL>
 <PP_NONLOCAL>
   <PP_BETA.1
       type="real"
       size=" 602"
       columns="4"
       index="1"
       angular_momentum="0"
       cutoff_radius_index=" 308"
       cutoff_radius="    3.0700000000E+00" >
    0.0000000000E+00    5.6623183788E-02    1.1314220478E-01    1.6945310389E-01
    2.2545232911E-01    2.8103693808E-01    3.3610479954E-01    3.9055479331E-01
    4.4428700839E-01    4.9720293877E-01    5.4920567670E-01    6.0020010292E-01
    6.5009307362E-01    6.9879360366E-01    7.4621304581E-01    7.9226526550E-01
    8.3686681100E-01    8.7993707839E-01    9.2139847127E-01    9.6117655459E-01
    9.9920020283E-01    1.0354017413E+00    1.0697170813E+00    1.1020858483E+00
    1.1324515028E+00    1.1607614535E+00    1.1869671638E+00    1.2110242489E+00
    1.2328925657E+00    1.2525362943E+00    1.2699240107E+00    1.2850287506E+00
    1.2978280643E+00    1.3083040623E+00    1.3164434524E+00    1.3222375669E+00
    1.3256823798E+00    1.3267785144E+00    1.3255312437E+00    1.3219504767E+00
    1.3160507384E+00    1.3078511389E+00    1.2973753321E+00    1.2846514659E+00
    1.2697121212E+00    1.2525942422E+00    1.2333390569E+00    1.2119919875E+00
    1.1886025522E+00    1.1632242580E+00    1.1359144853E+00    1.1067343556E+00
    1.0757486048E+00    1.0430254426E+00    1.0086363836E+00    9.7265612052E-01
    9.3516231751E-01    8.9623548064E-01    8.5595872999E-01    8.1441767078E-01
    7.7170012483E-01    7.2789602230E-01    6.8309710940E-01    6.3739678769E-01
    5.9088993984E-01    5.4367259304E-01    4.9584180587E-01    4.4749544079E-01
    3.9873187437E-01    3.4964979576E-01    3.0034800561E-01    2.5092517732E-01
    2.0147964861E-01    1.5210909488E-01    1.0291040900E-01    5.3979442054E-02
    5.4107801880E-03   -4.2702475274E-02   -9.0268924062E-02   -1.3719907882E-01
   -1.8340556048E-01   -2.2880332634E-01   -2.7330985917E-01   -3.1684533561E-01
   -3.5933281943E-01   -4.0069843558E-01   -4.4087153610E-01   -4.7978485723E-01
   -5.1737466731E-01   -5.5358088074E-01   -5.8834723869E-01   -6.2162140628E-01