<UPF version="2.0.1">
  <PP_INFO>

 This pseudopotential file has been produced using the code
 ONCVPSP  (Optimized Norm-Conservinng Vanderbilt PSeudopotential)
 scalar-relativistic version 2.1.1, 03/26/2014 by D. R. Hamann
 The code is available through a link at URL www.mat-simresearch.com.
 Documentation with the package provides a full discription of the
 input data below.


 While it is not required under the terms of the GNU GPL, it is
 suggested that you cite D. R. Hamann, Phys. Rev. B 88, 085117 (2013)
 in any publication using these pseudopotentials.


 Copyright 2015 The Regents of the University of California
 
 This work is licensed under the Creative Commons Attribution-ShareAlike 
 4.0 International License. To view a copy of this license, visit 
 http://creativecommons.org/licenses/by-sa/4.0/ or send a letter to 
 Creative Commons, PO Box 1866, Mountain View, CA 94042, USA.
 
 This pseudopotential is part of the Schlipf-Gygi norm-conserving 
 pseudopotential library. Its construction parameters were tuned to 
 reproduce materials of a training set with very high accuracy and 
 should be suitable as a general purpose pseudopotential to treat a 
 variety of different compounds. For details of the construction and 
 testing of the pseudopotential please refer to:
 
 [insert reference to paper here]
 
 We kindly ask that you include this reference in all publications 
 associated to this pseudopotential.


    <PP_INPUTFILE>
# ATOM AND REFERENCE CONFIGURATION
# atsym  z    nc    nv    iexc   psfile
  Cl 17.00     3     2     4      upf
#
#   n    l    f        energy (Ha)
    1    0    2.00
    2    0    2.00
    2    1    6.00
    3    0    2.00
    3    1    5.00
#
# PSEUDOPOTENTIAL AND OPTIMIZATION
# lmax
    1
#
#   l,   rc,     ep,   ncon, nbas, qcut
    0   3.22968  -0.76042    5    8   6.06131
    1   1.61693  -0.31587    5    8   6.97943
#
# LOCAL POTENTIAL
# lloc, lpopt,  rc(5),   dvloc0
    4    5   0.79991      0.00000
#
# VANDERBILT-KLEINMAN-BYLANDER PROJECTORs
# l, nproj, debl
    0    2   0.74762
    1    2   3.72254
#
# MODEL CORE CHARGE
# icmod, fcfact
    0   0.00000
#
# LOG DERIVATIVE ANALYSIS
# epsh1, epsh2, depsh
   -5.00    3.00    0.02
#
# OUTPUT GRID
# rlmax, drl
    6.00    0.01
#
# TEST CONFIGURATIONS
# ncnf
    0
# nvcnf
#   n    l    f
    </PP_INPUTFILE>
  </PP_INFO>
  <!--                               -->
  <!-- END OF HUMAN READABLE SECTION -->
  <!--                               -->
    <PP_HEADER
       generated="Generated using ONCVPSP code by D. R. Hamann"
       author="Martin Schlipf and Francois Gygi"
       date="150415"
       comment=""
       element="Cl"
       pseudo_type="NC"
       relativistic="scalar"
       is_ultrasoft="F"
       is_paw="F"
       is_coulomb="F"
       has_so="F"
       has_wfc="F"
       has_gipaw="F"
       core_correction="F"
       functional="PBE"
       z_valence="    7.00"
       total_psenergy="  -1.50281632082E+01"
       rho_cutoff="   6.01000000000E+00"
       l_max="1"
       l_local="-1"
       mesh_size="   602"
       number_of_wfc="0"
       number_of_proj="4"/>
 <PP_MESH>
   <PP_R type="real"  size=" 602" columns="8">
    0.0000    0.0100    0.0200    0.0300    0.0400    0.0500    0.0600    0.0700
    0.0800    0.0900    0.1000    0.1100    0.1200    0.1300    0.1400    0.1500
    0.1600    0.1700    0.1800    0.1900    0.2000    0.2100    0.2200    0.2300
    0.2400    0.2500    0.2600    0.2700    0.2800    0.2900    0.3000    0.3100
    0.3200    0.3300    0.3400    0.3500    0.3600    0.3700    0.3800    0.3900
    0.4000    0.4100    0.4200    0.4300    0.4400    0.4500    0.4600    0.4700
    0.4800    0.4900    0.5000    0.5100    0.5200    0.5300    0.5400    0.5500
    0.5600    0.5700    0.5800    0.5900    0.6000    0.6100    0.6200    0.6300
    0.6400    0.6500    0.6600    0.6700    0.6800    0.6900    0.7000    0.7100
    0.7200    0.7300    0.7400    0.7500    0.7600    0.7700    0.7800    0.7900
    0.8000    0.8100    0.8200    0.8300    0.8400    0.8500    0.8600    0.8700
    0.8800    0.8900    0.9000    0.9100    0.9200    0.9300    0.9400    0.9500
    0.9600    0.9700    0.9800    0.9900    1.0000    1.0100    1.0200    1.0300
    1.0400    1.0500    1.0600    1.0700    1.0800    1.0900    1.1000    1.1100
    1.1200    1.1300    1.1400    1.1500    1.1600    1.1700    1.1800    1.1900
    1.2000    1.2100    1.2200    1.2300    1.2400    1.2500    1.2600    1.2700
    1.2800    1.2900    1.3000    1.3100    1.3200    1.3300    1.3400    1.3500
    1.3600    1.3700    1.3800    1.3900    1.4000    1.4100    1.4200    1.4300
    1.4400    1.4500    1.4600    1.4700    1.4800    1.4900    1.5000    1.5100
    1.5200    1.5300    1.5400    1.5500    1.5600    1.5700    1.5800    1.5900
    1.6000    1.6100    1.6200    1.6300    1.6400    1.6500    1.6600    1.6700
    1.6800    1.6900    1.7000    1.7100    1.7200    1.7300    1.7400    1.7500
    1.7600    1.7700    1.7800    1.7900    1.8000    1.8100    1.8200    1.8300
    1.8400    1.8500    1.8600    1.8700    1.8800    1.8900    1.9000    1.9100
    1.9200    1.9300    1.9400    1.9500    1.9600    1.9700    1.9800    1.9900
    2.0000    2.0100    2.0200    2.0300    2.0400    2.0500    2.0600    2.0700
    2.0800    2.0900    2.1000    2.1100    2.1200    2.1300    2.1400    2.1500
    2.1600    2.1700    2.1800    2.1900    2.2000    2.2100    2.2200    2.2300
    2.2400    2.2500    2.2600    2.2700    2.2800    2.2900    2.3000    2.3100
    2.3200    2.3300    2.3400    2.3500    2.3600    2.3700    2.3800    2.3900
    2.4000    2.4100    2.4200    2.4300    2.4400    2.4500    2.4600    2.4700
    2.4800    2.4900    2.5000    2.5100    2.5200    2.5300    2.5400    2.5500
    2.5600    2.5700    2.5800    2.5900    2.6000    2.6100    2.6200    2.6300
    2.6400    2.6500    2.6600    2.6700    2.6800    2.6900    2.7000    2.7100
    2.7200    2.7300    2.7400    2.7500    2.7600    2.7700    2.7800    2.7900
    2.8000    2.8100    2.8200    2.8300    2.8400    2.8500    2.8600    2.8700
    2.8800    2.8900    2.9000    2.9100    2.9200    2.9300    2.9400    2.9500
    2.9600    2.9700    2.9800    2.9900    3.0000    3.0100    3.0200    3.0300
    3.0400    3.0500    3.0600    3.0700    3.0800    3.0900    3.1000    3.1100
    3.1200    3.1300    3.1400    3.1500    3.1600    3.1700    3.1800    3.1900
    3.2000    3.2100    3.2200    3.2300    3.2400    3.2500    3.2600    3.2700
    3.2800    3.2900    3.3000    3.3100    3.3200    3.3300    3.3400    3.3500
    3.3600    3.3700    3.3800    3.3900    3.4000    3.4100    3.4200    3.4300
    3.4400    3.4500    3.4600    3.4700    3.4800    3.4900    3.5000    3.5100
    3.5200    3.5300    3.5400    3.5500    3.5600    3.5700    3.5800    3.5900
    3.6000    3.6100    3.6200    3.6300    3.6400    3.6500    3.6600    3.6700
    3.6800    3.6900    3.7000    3.7100    3.7200    3.7300    3.7400    3.7500
    3.7600    3.7700    3.7800    3.7900    3.8000    3.8100    3.8200    3.8300
    3.8400    3.8500    3.8600    3.8700    3.8800    3.8900    3.9000    3.9100
    3.9200    3.9300    3.9400    3.9500    3.9600    3.9700    3.9800    3.9900
    4.0000    4.0100    4.0200    4.0300    4.0400    4.0500    4.0600    4.0700
    4.0800    4.0900    4.1000    4.1100    4.1200    4.1300    4.1400    4.1500
    4.1600    4.1700    4.1800    4.1900    4.2000    4.2100    4.2200    4.2300
    4.2400    4.2500    4.2600    4.2700    4.2800    4.2900    4.3000    4.3100
    4.3200    4.3300    4.3400    4.3500    4.3600    4.3700    4.3800    4.3900
    4.4000    4.4100    4.4200    4.4300    4.4400    4.4500    4.4600    4.4700
    4.4800    4.4900    4.5000    4.5100    4.5200    4.5300    4.5400    4.5500
    4.5600    4.5700    4.5800    4.5900    4.6000    4.6100    4.6200    4.6300
    4.6400    4.6500    4.6600    4.6700    4.6800    4.6900    4.7000    4.7100
    4.7200    4.7300    4.7400    4.7500    4.7600    4.7700    4.7800    4.7900
    4.8000    4.8100    4.8200    4.8300    4.8400    4.8500    4.8600    4.8700
    4.8800    4.8900    4.9000    4.9100    4.9200    4.9300    4.9400    4.9500
    4.9600    4.9700    4.9800    4.9900    5.0000    5.0100    5.0200    5.0300
    5.0400    5.0500    5.0600    5.0700    5.0800    5.0900    5.1000    5.1100
    5.1200    5.1300    5.1400    5.1500    5.1600    5.1700    5.1800    5.1900
    5.2000    5.2100    5.2200    5.2300    5.2400    5.2500    5.2600    5.2700
    5.2800    5.2900    5.3000    5.3100    5.3200    5.3300    5.3400    5.3500
    5.3600    5.3700    5.3800    5.3900    5.4000    5.4100    5.4200    5.4300
    5.4400    5.4500    5.4600    5.4700    5.4800    5.4900    5.5000    5.5100
    5.5200    5.5300    5.5400    5.5500    5.5600    5.5700    5.5800    5.5900
    5.6000    5.6100    5.6200    5.6300    5.6400    5.6500    5.6600    5.6700
    5.6800    5.6900    5.7000    5.7100    5.7200    5.7300    5.7400    5.7500
    5.7600    5.7700    5.7800    5.7900    5.8000    5.8100    5.8200    5.8300
    5.8400    5.8500    5.8600    5.8700    5.8800    5.8900    5.9000    5.9100
    5.9200    5.9300    5.9400    5.9500    5.9600    5.9700    5.9800    5.9900
    6.0000    6.0100
   </PP_R>
   <PP_RAB type="real"  size=" 602" columns="8">
    0.0100    0.0100    0.0100    0.0100    0.0100    0.0100    0.0100    0.0100
    0.0100    0.0100    0.0100    0.0100    0.0100    0.0100    0.0100    0.0100
    0.0100    0.0100    0.0100    0.0100    0.0100    0.0100    0.0100    0.0100
    0.0100    0.0100    0.0100    0.0100    0.0100    0.0100    0.0100    0.0100
    0.0100    0.0100    0.0100    0.0100    0.0100    0.0100    0.0100    0.0100
    0.0100    0.0100    0.0100    0.0100    0.0100    0.0100    0.0100    0.0100
    0.0100    0.0100    0.0100    0.0100    0.0100    0.0100    0.0100    0.0100
    0.0100    0.0100    0.0100    0.0100    0.0100    0.0100    0.0100    0.0100
    0.0100    0.0100    0.0100    0.0100    0.0100    0.0100    0.0100    0.0100
    0.0100    0.0100    0.0100    0.0100    0.0100    0.0100    0.0100    0.0100
    0.0100    0.0100    0.0100    0.0100    0.0100    0.0100    0.0100    0.0100
    0.0100    0.0100    0.0100    0.0100    0.0100    0.0100    0.0100    0.0100
    0.0100    0.0100    0.0100    0.0100    0.0100    0.0100    0.0100    0.0100
    0.0100    0.0100    0.0100    0.0100    0.0100    0.0100    0.0100    0.0100
    0.0100    0.0100    0.0100    0.0100    0.0100    0.0100    0.0100    0.0100
    0.0100    0.0100    0.0100    0.0100    0.0100    0.0100    0.0100    0.0100
    0.0100    0.0100    0.0100    0.0100    0.0100    0.0100    0.0100    0.0100
    0.0100    0.0100    0.0100    0.0100    0.0100    0.0100    0.0100    0.0100
    0.0100    0.0100    0.0100    0.0100    0.0100    0.0100    0.0100    0.0100
    0.0100    0.0100    0.0100    0.0100    0.0100    0.0100    0.0100    0.0100
    0.0100    0.0100    0.0100    0.0100    0.0100    0.0100    0.0100    0.0100
    0.0100    0.0100    0.0100    0.0100    0.0100    0.0100    0.0100    0.0100
    0.0100    0.0100    0.0100    0.0100    0.0100    0.0100    0.0100    0.0100
    0.0100    0.0100    0.0100    0.0100    0.0100    0.0100    0.0100    0.0100
    0.0100    0.0100    0.0100    0.0100    0.0100    0.0100    0.0100    0.0100
    0.0100    0.0100    0.0100    0.0100    0.0100    0.0100    0.0100    0.0100
    0.0100    0.0100    0.0100    0.0100    0.0100    0.0100    0.0100    0.0100
    0.0100    0.0100    0.0100    0.0100    0.0100    0.0100    0.0100    0.0100
    0.0100    0.0100    0.0100    0.0100    0.0100    0.0100    0.0100    0.0100
    0.0100    0.0100    0.0100    0.0100    0.0100    0.0100    0.0100    0.0100
    0.0100    0.0100    0.0100    0.0100    0.0100    0.0100    0.0100    0.0100
    0.0100    0.0100    0.0100    0.0100    0.0100    0.0100    0.0100    0.0100
    0.0100    0.0100    0.0100    0.0100    0.0100    0.0100    0.0100    0.0100
    0.0100    0.0100    0.0100    0.0100    0.0100    0.0100    0.0100    0.0100
    0.0100    0.0100    0.0100    0.0100    0.0100    0.0100    0.0100    0.0100
    0.0100    0.0100    0.0100    0.0100    0.0100    0.0100    0.0100    0.0100
    0.0100    0.0100    0.0100    0.0100    0.0100    0.0100    0.0100    0.0100
    0.0100    0.0100    0.0100    0.0100    0.0100    0.0100    0.0100    0.0100
    0.0100    0.0100    0.0100    0.0100    0.0100    0.0100    0.0100    0.0100
    0.0100    0.0100    0.0100    0.0100    0.0100    0.0100    0.0100    0.0100
    0.0100    0.0100    0.0100    0.0100    0.0100    0.0100    0.0100    0.0100
    0.0100    0.0100    0.0100    0.0100    0.0100    0.0100    0.0100    0.0100
    0.0100    0.0100    0.0100    0.0100    0.0100    0.0100    0.0100    0.0100
    0.0100    0.0100    0.0100    0.0100    0.0100    0.0100    0.0100    0.0100
    0.0100    0.0100    0.0100    0.0100    0.0100    0.0100    0.0100    0.0100
    0.0100    0.0100    0.0100    0.0100    0.0100    0.0100    0.0100    0.0100
    0.0100    0.0100    0.0100    0.0100    0.0100    0.0100    0.0100    0.0100
    0.0100    0.0100    0.0100    0.0100    0.0100    0.0100    0.0100    0.0100
    0.0100    0.0100    0.0100    0.0100    0.0100    0.0100    0.0100    0.0100
    0.0100    0.0100    0.0100    0.0100    0.0100    0.0100    0.0100    0.0100
    0.0100    0.0100    0.0100    0.0100    0.0100    0.0100    0.0100    0.0100
    0.0100    0.0100    0.0100    0.0100    0.0100    0.0100    0.0100    0.0100
    0.0100    0.0100    0.0100    0.0100    0.0100    0.0100    0.0100    0.0100
    0.0100    0.0100    0.0100    0.0100    0.0100    0.0100    0.0100    0.0100
    0.0100    0.0100    0.0100    0.0100    0.0100    0.0100    0.0100    0.0100
    0.0100    0.0100    0.0100    0.0100    0.0100    0.0100    0.0100    0.0100
    0.0100    0.0100    0.0100    0.0100    0.0100    0.0100    0.0100    0.0100
    0.0100    0.0100    0.0100    0.0100    0.0100    0.0100    0.0100    0.0100
    0.0100    0.0100    0.0100    0.0100    0.0100    0.0100    0.0100    0.0100
    0.0100    0.0100    0.0100    0.0100    0.0100    0.0100    0.0100    0.0100
    0.0100    0.0100    0.0100    0.0100    0.0100    0.0100    0.0100    0.0100
    0.0100    0.0100    0.0100    0.0100    0.0100    0.0100    0.0100    0.0100
    0.0100    0.0100    0.0100    0.0100    0.0100    0.0100    0.0100    0.0100
    0.0100    0.0100    0.0100    0.0100    0.0100    0.0100    0.0100    0.0100
    0.0100    0.0100    0.0100    0.0100    0.0100    0.0100    0.0100    0.0100
    0.0100    0.0100    0.0100    0.0100    0.0100    0.0100    0.0100    0.0100
    0.0100    0.0100    0.0100    0.0100    0.0100    0.0100    0.0100    0.0100
    0.0100    0.0100    0.0100    0.0100    0.0100    0.0100    0.0100    0.0100
    0.0100    0.0100    0.0100    0.0100    0.0100    0.0100    0.0100    0.0100
    0.0100    0.0100    0.0100    0.0100    0.0100    0.0100    0.0100    0.0100
    0.0100    0.0100    0.0100    0.0100    0.0100    0.0100    0.0100    0.0100
    0.0100    0.0100    0.0100    0.0100    0.0100    0.0100    0.0100    0.0100
    0.0100    0.0100    0.0100    0.0100    0.0100    0.0100    0.0100    0.0100
    0.0100    0.0100    0.0100    0.0100    0.0100    0.0100    0.0100    0.0100
    0.0100    0.0100    0.0100    0.0100    0.0100    0.0100    0.0100    0.0100
    0.0100    0.0100
   </PP_RAB>
 </PP_MESH>
  <PP_LOCAL type="real"  size=" 602" columns="4">
   -3.7642914079E+01   -3.7638903703E+01   -3.7626880117E+01   -3.7606835401E+01
   -3.7578761639E+01   -3.7542648121E+01   -3.7498481726E+01   -3.7446247403E+01
   -3.7385928764E+01   -3.7317508766E+01   -3.7240970495E+01   -3.7156298021E+01
   -3.7063477307E+01   -3.6962497170E+01   -3.6853350249E+01   -3.6736033965E+01
   -3.6610551451E+01   -3.6476912413E+01   -3.6335133916E+01   -3.6185241063E+01
   -3.6027267565E+01   -3.5861256174E+01   -3.5687259003E+01   -3.5505337709E+01
   -3.5315563562E+01   -3.5118017398E+01   -3.4912789491E+01   -3.4699979331E+01
   -3.4479695353E+01   -3.4252054616E+01   -3.4017182456E+01   -3.3775212131E+01
   -3.3526284461E+01   -3.3270547481E+01   -3.3008156125E+01   -3.2739271937E+01
   -3.2464062810E+01   -3.2182702761E+01   -3.1895371779E+01   -3.1602255668E+01
   -3.1303545963E+01   -3.0999439879E+01   -3.0690140305E+01   -3.0375855833E+01
   -3.0056800830E+01   -2.9733195542E+01   -2.9405266237E+01   -2.9073245384E+01
   -2.8737371859E+01   -2.8397891168E+01   -2.8055055715E+01   -2.7709125163E+01
   -2.7360366651E+01   -2.7009055139E+01   -2.6655473924E+01   -2.6299914710E+01
   -2.5942678384E+01   -2.5584074992E+01   -2.5224424586E+01   -2.4864057120E+01
   -2.4503313495E+01   -2.4142545269E+01   -2.3782115690E+01   -2.3422399803E+01
   -2.3063784574E+01   -2.2706670043E+01   -2.2351469068E+01   -2.1998607710E+01
   -2.1648525961E+01   -2.1301678031E+01   -2.0958532478E+01   -2.0619572654E+01
   -2.0285296847E+01   -1.9956219328E+01   -1.9632869978E+01   -1.9315794849E+01
   -1.9005556514E+01   -1.8702734413E+01   -1.8407925215E+01   -1.8121743187E+01
   -1.7844820554E+01   -1.7577804396E+01   -1.7321343508E+01   -1.7076001949E+01
   -1.6842160772E+01   -1.6619932604E+01   -1.6409106374E+01   -1.6209132578E+01
   -1.6019152934E+01   -1.5838070555E+01   -1.5664645038E+01   -1.5497608458E+01
   -1.5335766024E+01   -1.5178075128E+01   -1.5023692216E+01   -1.4871986999E+01
   -1.4722529929E+01   -1.4575062125E+01   -1.4429457128E+01   -1.4285680929E+01
   -1.4143762601E+01   -1.4003759121E+01   -1.3865738568E+01   -1.3729767629E+01
   -1.3595903819E+01   -1.3464192561E+01   -1.3334662253E+01   -1.3207328220E+01
   -1.3082193208E+01   -1.2959249186E+01   -1.2838478767E+01   -1.2719856115E+01
   -1.2603350309E+01   -1.2488925955E+01   -1.2376544260E+01   -1.2266163522E+01
   -1.2157740856E+01   -1.2051232364E+01   -1.1946593501E+01   -1.1843779733E+01
   -1.1742746777E+01   -1.1643450584E+01   -1.1545848037E+01   -1.1449896695E+01
   -1.1355554733E+01   -1.1262781592E+01   -1.1171537662E+01   -1.1081784012E+01
   -1.0993483143E+01   -1.0906598587E+01   -1.0821094492E+01   -1.0736936649E+01
   -1.0654091743E+01   -1.0572527022E+01   -1.0492211645E+01   -1.0413115237E+01
   -1.0335208434E+01   -1.0258463418E+01   -1.0182852649E+01   -1.0108350199E+01
   -1.0034930917E+01   -9.9625702171E+00   -9.8912452138E+00   -9.8209330533E+00
   -9.7516124061E+00   -9.6832624636E+00   -9.6158630510E+00   -9.5493952642E+00
   -9.4838400575E+00   -9.4191799861E+00   -9.3553974197E+00   -9.2924757748E+00
   -9.2303987388E+00   -9.1691504631E+00   -9.1087156776E+00   -9.0490791611E+00
   -8.9902264134E+00   -8.9321427389E+00   -8.8748141388E+00   -8.8182264014E+00
   -8.7623657745E+00   -8.7072184171E+00   -8.6527709197E+00   -8.5990099590E+00
   -8.5459230484E+00   -8.4934977840E+00   -8.4417226304E+00   -8.3905859617E+00
   -8.3400764306E+00   -8.2901828484E+00   -8.2408944246E+00   -8.1922004509E+00
   -8.1440906093E+00   -8.0965546155E+00   -8.0495826140E+00   -8.0031647017E+00
   -7.9572914824E+00   -7.9119533988E+00   -7.8671415056E+00   -7.8228465584E+00
   -7.7790600496E+00   -7.7357730349E+00   -7.6929773781E+00   -7.6506645380E+00
   -7.6088266109E+00   -7.5674554964E+00   -7.5265434884E+00   -7.4860829306E+00
   -7.4460662838E+00   -7.4064863345E+00   -7.3673356876E+00   -7.3286075432E+00
   -7.2902947047E+00   -7.2523906458E+00   -7.2148885514E+00   -7.1777819795E+00
   -7.1410645618E+00   -7.1047299116E+00   -7.0687720938E+00   -7.0331848018E+00
   -6.9979623951E+00   -6.9630989224E+00   -6.9285887505E+00   -6.8944263837E+00
   -6.8606061711E+00   -6.8271229994E+00   -6.7939714033E+00   -6.7611463748E+00
   -6.7286428632E+00   -6.6964557928E+00   -6.6645805220E+00   -6.6330120721E+00
   -6.6017459426E+00   -6.5707775520E+00   -6.5401022872E+00   -6.5097159672E+00
   -6.4796140893E+00   -6.4497925521E+00   -6.4202472678E+00   -6.3909739824E+00
   -6.3619689637E+00   -6.3332281808E+00   -6.3047478262E+00   -6.2765242978E+00
   -6.2485537039E+00   -6.2208326485E+00   -6.1933576029E+00   -6.1661249598E+00
   -6.1391315566E+00   -6.1123739603E+00   -6.0858489181E+00   -6.0595533915E+00
   -6.0334840814E+00   -6.0076380552E+00   -5.9820123912E+00   -5.9566039305E+00
   -5.9314100224E+00   -5.9064278283E+00   -5.8816544284E+00   -5.8570873206E+00
   -5.8327237828E+00   -5.8085611313E+00   -5.7845969808E+00   -5.7608287353E+00
   -5.7372539170E+00   -5.7138702537E+00   -5.6906752751E+00   -5.6676666800E+00
   -5.6448423067E+00   -5.6221998095E+00   -5.5997370357E+00   -5.5774519319E+00
   -5.5553422751E+00   -5.5334060353E+00   -5.5116412655E+00   -5.4900458621E+00
   -5.4686178949E+00   -5.4473555207E+00   -5.4262567520E+00   -5.4053197377E+00
   -5.3845427353E+00   -5.3639238705E+00   -5.3434613526E+00   -5.3231535368E+00
   -5.3029986579E+00   -5.2829949706E+00   -5.2631409236E+00   -5.2434348572E+00
   -5.2238750588E+00   -5.2044600659E+00   -5.1851883142E+00   -5.1660581338E+00
   -5.1470681256E+00   -5.1282168029E+00   -5.1095025939E+00   -5.0909240950E+00
   -5.0724799123E+00   -5.0541685716E+00   -5.0359886549E+00   -5.0179388580E+00
   -5.0000178029E+00   -4.9822240513E+00   -4.9645563832E+00   -4.9470134898E+00
   -4.9295939884E+00   -4.9122966584E+00   -4.8951202718E+00   -4.8780635394E+00
   -4.8611251961E+00   -4.8443041038E+00   -4.8275990606E+00   -4.8110087797E+00
   -4.7945321800E+00   -4.7781681194E+00   -4.7619154041E+00   -4.7457728895E+00
   -4.7297395282E+00   -4.7138142176E+00   -4.6979957702E+00   -4.6822832009E+00
   -4.6666754642E+00   -4.6511714711E+00   -4.6357701517E+00   -4.6204705616E+00
   -4.6052716923E+00   -4.5901724645E+00   -4.5751719469E+00   -4.5602692041E+00
   -4.5454632656E+00   -4.5307530927E+00   -4.5161378559E+00   -4.5016166381E+00
   -4.4871884832E+00   -4.4728524684E+00   -4.4586077828E+00   -4.4444535541E+00
   -4.4303888450E+00   -4.4164128394E+00   -4.4025247448E+00   -4.3887237323E+00
   -4.3750088921E+00   -4.3613794978E+00   -4.3478347754E+00   -4.3343739344E+00
   -4.3209961095E+00   -4.3077006305E+00   -4.2944867459E+00   -4.2813536918E+00
   -4.2683006691E+00   -4.2553270231E+00   -4.2424320342E+00   -4.2296149621E+00
   -4.2168750499E+00   -4.2042116782E+00   -4.1916241618E+00   -4.1791117931E+00
   -4.1666738573E+00   -4.1543097611E+00   -4.1420188511E+00   -4.1298004536E+00
   -4.1176538829E+00   -4.1055785759E+00   -4.0935739099E+00   -4.0816392473E+00
   -4.0697739214E+00   -4.0579774018E+00   -4.0462490945E+00   -4.0345884003E+00
   -4.0229946627E+00   -4.0114673851E+00   -4.0000060012E+00   -3.9886099450E+00
   -3.9772785834E+00   -3.9660114333E+00   -3.9548079622E+00   -3.9436676302E+00
   -3.9325898466E+00   -3.9215741166E+00   -3.9106199484E+00   -3.8997268275E+00
   -3.8888942080E+00   -3.8781215751E+00   -3.8674084793E+00   -3.8567544301E+00
   -3.8461589284E+00   -3.8356214334E+00   -3.8251415379E+00   -3.8147187741E+00
   -3.8043526743E+00   -3.7940427196E+00   -3.7837884916E+00   -3.7735895618E+00
   -3.7634454842E+00   -3.7533557904E+00   -3.7433200185E+00   -3.7333377880E+00
   -3.7234086737E+00   -3.7135322503E+00   -3.7037080374E+00   -3.6939356720E+00
   -3.6842147583E+00   -3.6745448908E+00   -3.6649256427E+00   -3.6553565933E+00
   -3.6458373988E+00   -3.6363676725E+00   -3.6269470279E+00   -3.6175750319E+00
   -3.6082513420E+00   -3.5989756054E+00   -3.5897474537E+00   -3.5805665110E+00
   -3.5714323649E+00   -3.5623447170E+00   -3.5533032158E+00   -3.5443075100E+00
   -3.5353572226E+00   -3.5264520002E+00   -3.5175915422E+00   -3.5087755136E+00
   -3.5000035794E+00   -3.4912753651E+00   -3.4825905666E+00   -3.4739488835E+00
   -3.4653499964E+00   -3.4567935859E+00   -3.4482792835E+00   -3.4398068245E+00
   -3.4313759116E+00   -3.4229862403E+00   -3.4146375054E+00   -3.4063293496E+00
   -3.3980615361E+00   -3.3898337744E+00   -3.3816457744E+00   -3.3734972406E+00
   -3.3653878405E+00   -3.3573173456E+00   -3.3492854791E+00   -3.3412919643E+00
   -3.3333365182E+00   -3.3254188253E+00   -3.3175386678E+00   -3.3096957819E+00
   -3.3018899036E+00   -3.2941207651E+00   -3.2863880603E+00   -3.2786915845E+00
   -3.2710310860E+00   -3.2634063134E+00   -3.2558170151E+00   -3.2482628908E+00
   -3.2407437476E+00   -3.2332593469E+00   -3.2258094486E+00   -3.2183938130E+00
   -3.2110121602E+00   -3.2036642900E+00   -3.1963499830E+00   -3.1890690104E+00
   -3.1818211435E+00   -3.1746061250E+00   -3.1674237411E+00   -3.1602737938E+00
   -3.1531560648E+00   -3.1460703363E+00   -3.1390163753E+00   -3.1319939492E+00
   -3.1250028824E+00   -3.1180429671E+00   -3.1111139955E+00   -3.1042157596E+00
   -3.0973480080E+00   -3.0905105838E+00   -3.0837032904E+00   -3.0769259298E+00
   -3.0701783037E+00   -3.0634601892E+00   -3.0567713972E+00   -3.0501117594E+00
   -3.0434810867E+00   -3.0368791902E+00   -3.0303058777E+00   -3.0237609238E+00
   -3.0172441884E+00   -3.0107554915E+00   -3.0042946528E+00   -2.9978614923E+00
   -2.9914558069E+00   -2.9850774232E+00   -2.9787261898E+00   -2.9724019350E+00
   -2.9661044869E+00   -2.9598336739E+00   -2.9535892862E+00   -2.9473711937E+00
   -2.9411792361E+00   -2.9350132497E+00   -2.9288730708E+00   -2.9227585256E+00
   -2.9166694311E+00   -2.9106056622E+00   -2.9045670626E+00   -2.8985534763E+00
   -2.8925647471E+00   -2.8866006990E+00   -2.8806611789E+00   -2.8747460584E+00
   -2.8688551885E+00   -2.8629884204E+00   -2.8571456053E+00   -2.8513265676E+00
   -2.8455311772E+00   -2.8397593047E+00   -2.8340108083E+00   -2.8282855460E+00
   -2.8225833758E+00   -2.8169041256E+00   -2.8112476811E+00   -2.8056139149E+00
   -2.8000026915E+00   -2.7944138757E+00   -2.7888473322E+00   -2.7833028945E+00
   -2.7777804578E+00   -2.7722798990E+00   -2.7668010891E+00   -2.7613438990E+00
   -2.7559081999E+00   -2.7504938330E+00   -2.7451006972E+00   -2.7397286761E+00
   -2.7343776467E+00   -2.7290474860E+00   -2.7237380711E+00   -2.7184492534E+00
   -2.7131809295E+00   -2.7079329921E+00   -2.7027053239E+00   -2.6974978078E+00
   -2.6923103265E+00   -2.6871427435E+00   -2.6819949479E+00   -2.6768668437E+00
   -2.6717583190E+00   -2.6666692621E+00   -2.6615995612E+00   -2.6565490941E+00
   -2.6515177372E+00   -2.6465054077E+00   -2.6415119988E+00   -2.6365374040E+00
   -2.6315815167E+00   -2.6266442304E+00   -2.6217254064E+00   -2.6168249742E+00
   -2.6119428330E+00   -2.6070788811E+00   -2.6022330170E+00   -2.5974051389E+00
   -2.5925951262E+00   -2.5878028857E+00   -2.5830283337E+00   -2.5782713736E+00
   -2.5735319083E+00   -2.5688098410E+00   -2.5641050712E+00   -2.5594174783E+00
   -2.5547469977E+00   -2.5500935371E+00   -2.5454570039E+00   -2.5408373060E+00
   -2.5362343508E+00   -2.5316480287E+00   -2.5270782535E+00   -2.5225249506E+00
   -2.5179880319E+00   -2.5134674095E+00   -2.5089629952E+00   -2.5044747010E+00
   -2.5000024109E+00   -2.4955460666E+00   -2.4911055859E+00   -2.4866808850E+00
   -2.4822718800E+00   -2.4778784868E+00   -2.4735006148E+00   -2.4691381649E+00
   -2.4647910796E+00   -2.4604592790E+00   -2.4561426829E+00   -2.4518412114E+00
   -2.4475547844E+00   -2.4432833092E+00   -2.4390267037E+00   -2.4347849078E+00
   -2.4305578452E+00   -2.4263454396E+00   -2.4221476146E+00   -2.4179642940E+00
   -2.4137953855E+00   -2.4096408183E+00   -2.4055005320E+00   -2.4013744538E+00
   -2.3972625109E+00   -2.3931646306E+00   -2.3890807401E+00   -2.3850107499E+00
   -2.3809545953E+00   -2.3769122175E+00   -2.3728835473E+00   -2.3688685153E+00
   -2.3648670520E+00   -2.3608790882E+00   -2.3569045390E+00   -2.3529433408E+00
   -2.3489954390E+00   -2.3450607673E+00   -2.3411392596E+00   -2.3372308499E+00
   -2.3333354719E+00   -2.3294530476E+00
  </PP_LOCAL>
 <PP_NONLOCAL>
   <PP_BETA.1
       type="real"
       size=" 602"
       columns="4"
       index="1"
       angular_momentum="0"
       cutoff_radius_index=" 326"
       cutoff_radius="    3.2500000000E+00" >
    0.0000000000E+00    4.5395555875E-02    9.0747874865E-02    1.3601371648E-01
    1.8114983337E-01    2.2611296874E-01    2.7085985478E-01    3.1534721249E-01
    3.5953175317E-01    4.0337018189E-01    4.4681920329E-01    4.8983553004E-01
    5.3237589415E-01    5.7439706145E-01    6.1585584962E-01    6.5670914977E-01
    6.9691395205E-01    7.3642737531E-01    7.7520670116E-01    8.1320941241E-01
    8.5039323626E-01    8.8671619217E-01    9.2213664459E-01    9.5661336070E-01
    9.9010557309E-01    1.0225730472E+00    1.0539761545E+00    1.0842759495E+00
    1.1134342527E+00    1.1414137375E+00    1.1681780228E+00    1.1936917690E+00
    1.2179207791E+00    1.2408321032E+00    1.2623941479E+00    1.2825767884E+00
    1.3013514844E+00    1.3186913968E+00    1.3345715126E+00    1.3489687646E+00
    1.3618621573E+00    1.3732328928E+00    1.3830644978E+00    1.3913429506E+00
    1.3980568071E+00    1.4031973262E+00    1.4067585944E+00    1.4087376464E+00
    1.4091345844E+00    1.4079526901E+00    1.4051985358E+00    1.4008820998E+00
    1.3950168502E+00    1.3876198408E+00    1.3787118158E+00    1.3683172480E+00
    1.3564644556E+00    1.3431856085E+00    1.3285168260E+00    1.3124981581E+00
    1.2951736680E+00    1.2765913806E+00    1.2568033266E+00    1.2358654980E+00
    1.2138378004E+00    1.1907840361E+00    1.1667718002E+00    1.1418723986E+00
    1.1161607462E+00    1.0897152303E+00    1.0626175586E+00    1.0349525887E+00
    1.0068081432E+00    9.7827476040E-01    9.4944547466E-01    9.2041554184E-01
    8.9128214496E-01    8.6214407344E-01    8.3310137556E-01    8.0425498319E-01
    7.7570631321E-01    7.4755654703E-01    7.1990498018E-01    6.9284134715E-01
    6.6643712381E-01    6.4073810253E-01    6.1575975765E-01    5.9148630752E-01
    5.6787376389E-01    5.4485648840E-01    5.2235607635E-01    5.0029160903E-01
    4.7858851236E-01    4.5718530042E-01    4.3603737499E-01    4.1511792102E-01
    3.9441649013E-01    3.7393612380E-01    3.5368985568E-01    3.3369721854E-01