<UPF version="2.0.1">
  <PP_INFO>

 This pseudopotential file has been produced using the code
 ONCVPSP  (Optimized Norm-Conservinng Vanderbilt PSeudopotential)
 scalar-relativistic version 2.1.1, 03/26/2014 by D. R. Hamann
 The code is available through a link at URL www.mat-simresearch.com.
 Documentation with the package provides a full discription of the
 input data below.


 While it is not required under the terms of the GNU GPL, it is
 suggested that you cite D. R. Hamann, Phys. Rev. B 88, 085117 (2013)
 in any publication using these pseudopotentials.


 Copyright 2015 The Regents of the University of California
 
 This work is licensed under the Creative Commons Attribution-ShareAlike 
 4.0 International License. To view a copy of this license, visit 
 http://creativecommons.org/licenses/by-sa/4.0/ or send a letter to 
 Creative Commons, PO Box 1866, Mountain View, CA 94042, USA.
 
 This pseudopotential is part of the Schlipf-Gygi norm-conserving 
 pseudopotential library. Its construction parameters were tuned to 
 reproduce materials of a training set with very high accuracy and 
 should be suitable as a general purpose pseudopotential to treat a 
 variety of different compounds. For details of the construction and 
 testing of the pseudopotential please refer to:
 
 [insert reference to paper here]
 
 We kindly ask that you include this reference in all publications 
 associated to this pseudopotential.


    <PP_INPUTFILE>
# ATOM AND REFERENCE CONFIGURATION
# atsym  z    nc    nv    iexc   psfile
  Co 27.00     3     4     4      upf
#
#   n    l    f        energy (Ha)
    1    0    2.00
    2    0    2.00
    2    1    6.00
    3    0    2.00
    3    1    6.00
    4    0    2.00
    3    2    7.00
#
# PSEUDOPOTENTIAL AND OPTIMIZATION
# lmax
    2
#
#   l,   rc,     ep,   ncon, nbas, qcut
    0   2.15848  -3.76330    5    8   6.19611
    1   2.05791  -2.41210    5    8   7.48645
    2   2.18438  -0.30150    5    8   7.72578
#
# LOCAL POTENTIAL
# lloc, lpopt,  rc(5),   dvloc0
    4    5   1.91577      0.00000
#
# VANDERBILT-KLEINMAN-BYLANDER PROJECTORs
# l, nproj, debl
    0    2   3.56228
    1    2   2.87477
    2    2   1.11125
#
# MODEL CORE CHARGE
# icmod, fcfact
    0   0.00000
#
# LOG DERIVATIVE ANALYSIS
# epsh1, epsh2, depsh
   -5.00    3.00    0.02
#
# OUTPUT GRID
# rlmax, drl
    6.00    0.01
#
# TEST CONFIGURATIONS
# ncnf
    0
# nvcnf
#   n    l    f
    </PP_INPUTFILE>
  </PP_INFO>
  <!--                               -->
  <!-- END OF HUMAN READABLE SECTION -->
  <!--                               -->
    <PP_HEADER
       generated="Generated using ONCVPSP code by D. R. Hamann"
       author="Martin Schlipf and Francois Gygi"
       date="150105"
       comment=""
       element="Co"
       pseudo_type="NC"
       relativistic="scalar"
       is_ultrasoft="F"
       is_paw="F"
       is_coulomb="F"
       has_so="F"
       has_wfc="F"
       has_gipaw="F"
       core_correction="F"
       functional="PBE"
       z_valence="   17.00"
       total_psenergy="  -1.35201712299E+02"
       rho_cutoff="   6.01000000000E+00"
       l_max="2"
       l_local="-1"
       mesh_size="   602"
       number_of_wfc="0"
       number_of_proj="6"/>
 <PP_MESH>
   <PP_R type="real"  size=" 602" columns="8">
    0.0000    0.0100    0.0200    0.0300    0.0400    0.0500    0.0600    0.0700
    0.0800    0.0900    0.1000    0.1100    0.1200    0.1300    0.1400    0.1500
    0.1600    0.1700    0.1800    0.1900    0.2000    0.2100    0.2200    0.2300
    0.2400    0.2500    0.2600    0.2700    0.2800    0.2900    0.3000    0.3100
    0.3200    0.3300    0.3400    0.3500    0.3600    0.3700    0.3800    0.3900
    0.4000    0.4100    0.4200    0.4300    0.4400    0.4500    0.4600    0.4700
    0.4800    0.4900    0.5000    0.5100    0.5200    0.5300    0.5400    0.5500
    0.5600    0.5700    0.5800    0.5900    0.6000    0.6100    0.6200    0.6300
    0.6400    0.6500    0.6600    0.6700    0.6800    0.6900    0.7000    0.7100
    0.7200    0.7300    0.7400    0.7500    0.7600    0.7700    0.7800    0.7900
    0.8000    0.8100    0.8200    0.8300    0.8400    0.8500    0.8600    0.8700
    0.8800    0.8900    0.9000    0.9100    0.9200    0.9300    0.9400    0.9500
    0.9600    0.9700    0.9800    0.9900    1.0000    1.0100    1.0200    1.0300
    1.0400    1.0500    1.0600    1.0700    1.0800    1.0900    1.1000    1.1100
    1.1200    1.1300    1.1400    1.1500    1.1600    1.1700    1.1800    1.1900
    1.2000    1.2100    1.2200    1.2300    1.2400    1.2500    1.2600    1.2700
    1.2800    1.2900    1.3000    1.3100    1.3200    1.3300    1.3400    1.3500
    1.3600    1.3700    1.3800    1.3900    1.4000    1.4100    1.4200    1.4300
    1.4400    1.4500    1.4600    1.4700    1.4800    1.4900    1.5000    1.5100
    1.5200    1.5300    1.5400    1.5500    1.5600    1.5700    1.5800    1.5900
    1.6000    1.6100    1.6200    1.6300    1.6400    1.6500    1.6600    1.6700
    1.6800    1.6900    1.7000    1.7100    1.7200    1.7300    1.7400    1.7500
    1.7600    1.7700    1.7800    1.7900    1.8000    1.8100    1.8200    1.8300
    1.8400    1.8500    1.8600    1.8700    1.8800    1.8900    1.9000    1.9100
    1.9200    1.9300    1.9400    1.9500    1.9600    1.9700    1.9800    1.9900
    2.0000    2.0100    2.0200    2.0300    2.0400    2.0500    2.0600    2.0700
    2.0800    2.0900    2.1000    2.1100    2.1200    2.1300    2.1400    2.1500
    2.1600    2.1700    2.1800    2.1900    2.2000    2.2100    2.2200    2.2300
    2.2400    2.2500    2.2600    2.2700    2.2800    2.2900    2.3000    2.3100
    2.3200    2.3300    2.3400    2.3500    2.3600    2.3700    2.3800    2.3900
    2.4000    2.4100    2.4200    2.4300    2.4400    2.4500    2.4600    2.4700
    2.4800    2.4900    2.5000    2.5100    2.5200    2.5300    2.5400    2.5500
    2.5600    2.5700    2.5800    2.5900    2.6000    2.6100    2.6200    2.6300
    2.6400    2.6500    2.6600    2.6700    2.6800    2.6900    2.7000    2.7100
    2.7200    2.7300    2.7400    2.7500    2.7600    2.7700    2.7800    2.7900
    2.8000    2.8100    2.8200    2.8300    2.8400    2.8500    2.8600    2.8700
    2.8800    2.8900    2.9000    2.9100    2.9200    2.9300    2.9400    2.9500
    2.9600    2.9700    2.9800    2.9900    3.0000    3.0100    3.0200    3.0300
    3.0400    3.0500    3.0600    3.0700    3.0800    3.0900    3.1000    3.1100
    3.1200    3.1300    3.1400    3.1500    3.1600    3.1700    3.1800    3.1900
    3.2000    3.2100    3.2200    3.2300    3.2400    3.2500    3.2600    3.2700
    3.2800    3.2900    3.3000    3.3100    3.3200    3.3300    3.3400    3.3500
    3.3600    3.3700    3.3800    3.3900    3.4000    3.4100    3.4200    3.4300
    3.4400    3.4500    3.4600    3.4700    3.4800    3.4900    3.5000    3.5100
    3.5200    3.5300    3.5400    3.5500    3.5600    3.5700    3.5800    3.5900
    3.6000    3.6100    3.6200    3.6300    3.6400    3.6500    3.6600    3.6700
    3.6800    3.6900    3.7000    3.7100    3.7200    3.7300    3.7400    3.7500
    3.7600    3.7700    3.7800    3.7900    3.8000    3.8100    3.8200    3.8300
    3.8400    3.8500    3.8600    3.8700    3.8800    3.8900    3.9000    3.9100
    3.9200    3.9300    3.9400    3.9500    3.9600    3.9700    3.9800    3.9900
    4.0000    4.0100    4.0200    4.0300    4.0400    4.0500    4.0600    4.0700
    4.0800    4.0900    4.1000    4.1100    4.1200    4.1300    4.1400    4.1500
    4.1600    4.1700    4.1800    4.1900    4.2000    4.2100    4.2200    4.2300
    4.2400    4.2500    4.2600    4.2700    4.2800    4.2900    4.3000    4.3100
    4.3200    4.3300    4.3400    4.3500    4.3600    4.3700    4.3800    4.3900
    4.4000    4.4100    4.4200    4.4300    4.4400    4.4500    4.4600    4.4700
    4.4800    4.4900    4.5000    4.5100    4.5200    4.5300    4.5400    4.5500
    4.5600    4.5700    4.5800    4.5900    4.6000    4.6100    4.6200    4.6300
    4.6400    4.6500    4.6600    4.6700    4.6800    4.6900    4.7000    4.7100
    4.7200    4.7300    4.7400    4.7500    4.7600    4.7700    4.7800    4.7900
    4.8000    4.8100    4.8200    4.8300    4.8400    4.8500    4.8600    4.8700
    4.8800    4.8900    4.9000    4.9100    4.9200    4.9300    4.9400    4.9500
    4.9600    4.9700    4.9800    4.9900    5.0000    5.0100    5.0200    5.0300
    5.0400    5.0500    5.0600    5.0700    5.0800    5.0900    5.1000    5.1100
    5.1200    5.1300    5.1400    5.1500    5.1600    5.1700    5.1800    5.1900
    5.2000    5.2100    5.2200    5.2300    5.2400    5.2500    5.2600    5.2700
    5.2800    5.2900    5.3000    5.3100    5.3200    5.3300    5.3400    5.3500
    5.3600    5.3700    5.3800    5.3900    5.4000    5.4100    5.4200    5.4300
    5.4400    5.4500    5.4600    5.4700    5.4800    5.4900    5.5000    5.5100
    5.5200    5.5300    5.5400    5.5500    5.5600    5.5700    5.5800    5.5900
    5.6000    5.6100    5.6200    5.6300    5.6400    5.6500    5.6600    5.6700
    5.6800    5.6900    5.7000    5.7100    5.7200    5.7300    5.7400    5.7500
    5.7600    5.7700    5.7800    5.7900    5.8000    5.8100    5.8200    5.8300
    5.8400    5.8500    5.8600    5.8700    5.8800    5.8900    5.9000    5.9100
    5.9200    5.9300    5.9400    5.9500    5.9600    5.9700    5.9800    5.9900
    6.0000    6.0100
   </PP_R>
   <PP_RAB type="real"  size=" 602" columns="8">
    0.0100    0.0100    0.0100    0.0100    0.0100    0.0100    0.0100    0.0100
    0.0100    0.0100    0.0100    0.0100    0.0100    0.0100    0.0100    0.0100
    0.0100    0.0100    0.0100    0.0100    0.0100    0.0100    0.0100    0.0100
    0.0100    0.0100    0.0100    0.0100    0.0100    0.0100    0.0100    0.0100
    0.0100    0.0100    0.0100    0.0100    0.0100    0.0100    0.0100    0.0100
    0.0100    0.0100    0.0100    0.0100    0.0100    0.0100    0.0100    0.0100
    0.0100    0.0100    0.0100    0.0100    0.0100    0.0100    0.0100    0.0100
    0.0100    0.0100    0.0100    0.0100    0.0100    0.0100    0.0100    0.0100
    0.0100    0.0100    0.0100    0.0100    0.0100    0.0100    0.0100    0.0100
    0.0100    0.0100    0.0100    0.0100    0.0100    0.0100    0.0100    0.0100
    0.0100    0.0100    0.0100    0.0100    0.0100    0.0100    0.0100    0.0100
    0.0100    0.0100    0.0100    0.0100    0.0100    0.0100    0.0100    0.0100
    0.0100    0.0100    0.0100    0.0100    0.0100    0.0100    0.0100    0.0100
    0.0100    0.0100    0.0100    0.0100    0.0100    0.0100    0.0100    0.0100
    0.0100    0.0100    0.0100    0.0100    0.0100    0.0100    0.0100    0.0100
    0.0100    0.0100    0.0100    0.0100    0.0100    0.0100    0.0100    0.0100
    0.0100    0.0100    0.0100    0.0100    0.0100    0.0100    0.0100    0.0100
    0.0100    0.0100    0.0100    0.0100    0.0100    0.0100    0.0100    0.0100
    0.0100    0.0100    0.0100    0.0100    0.0100    0.0100    0.0100    0.0100
    0.0100    0.0100    0.0100    0.0100    0.0100    0.0100    0.0100    0.0100
    0.0100    0.0100    0.0100    0.0100    0.0100    0.0100    0.0100    0.0100
    0.0100    0.0100    0.0100    0.0100    0.0100    0.0100    0.0100    0.0100
    0.0100    0.0100    0.0100    0.0100    0.0100    0.0100    0.0100    0.0100
    0.0100    0.0100    0.0100    0.0100    0.0100    0.0100    0.0100    0.0100
    0.0100    0.0100    0.0100    0.0100    0.0100    0.0100    0.0100    0.0100
    0.0100    0.0100    0.0100    0.0100    0.0100    0.0100    0.0100    0.0100
    0.0100    0.0100    0.0100    0.0100    0.0100    0.0100    0.0100    0.0100
    0.0100    0.0100    0.0100    0.0100    0.0100    0.0100    0.0100    0.0100
    0.0100    0.0100    0.0100    0.0100    0.0100    0.0100    0.0100    0.0100
    0.0100    0.0100    0.0100    0.0100    0.0100    0.0100    0.0100    0.0100
    0.0100    0.0100    0.0100    0.0100    0.0100    0.0100    0.0100    0.0100
    0.0100    0.0100    0.0100    0.0100    0.0100    0.0100    0.0100    0.0100
    0.0100    0.0100    0.0100    0.0100    0.0100    0.0100    0.0100    0.0100
    0.0100    0.0100    0.0100    0.0100    0.0100    0.0100    0.0100    0.0100
    0.0100    0.0100    0.0100    0.0100    0.0100    0.0100    0.0100    0.0100
    0.0100    0.0100    0.0100    0.0100    0.0100    0.0100    0.0100    0.0100
    0.0100    0.0100    0.0100    0.0100    0.0100    0.0100    0.0100    0.0100
    0.0100    0.0100    0.0100    0.0100    0.0100    0.0100    0.0100    0.0100
    0.0100    0.0100    0.0100    0.0100    0.0100    0.0100    0.0100    0.0100
    0.0100    0.0100    0.0100    0.0100    0.0100    0.0100    0.0100    0.0100
    0.0100    0.0100    0.0100    0.0100    0.0100    0.0100    0.0100    0.0100
    0.0100    0.0100    0.0100    0.0100    0.0100    0.0100    0.0100    0.0100
    0.0100    0.0100    0.0100    0.0100    0.0100    0.0100    0.0100    0.0100
    0.0100    0.0100    0.0100    0.0100    0.0100    0.0100    0.0100    0.0100
    0.0100    0.0100    0.0100    0.0100    0.0100    0.0100    0.0100    0.0100
    0.0100    0.0100    0.0100    0.0100    0.0100    0.0100    0.0100    0.0100
    0.0100    0.0100    0.0100    0.0100    0.0100    0.0100    0.0100    0.0100
    0.0100    0.0100    0.0100    0.0100    0.0100    0.0100    0.0100    0.0100
    0.0100    0.0100    0.0100    0.0100    0.0100    0.0100    0.0100    0.0100
    0.0100    0.0100    0.0100    0.0100    0.0100    0.0100    0.0100    0.0100
    0.0100    0.0100    0.0100    0.0100    0.0100    0.0100    0.0100    0.0100
    0.0100    0.0100    0.0100    0.0100    0.0100    0.0100    0.0100    0.0100
    0.0100    0.0100    0.0100    0.0100    0.0100    0.0100    0.0100    0.0100
    0.0100    0.0100    0.0100    0.0100    0.0100    0.0100    0.0100    0.0100
    0.0100    0.0100    0.0100    0.0100    0.0100    0.0100    0.0100    0.0100
    0.0100    0.0100    0.0100    0.0100    0.0100    0.0100    0.0100    0.0100
    0.0100    0.0100    0.0100    0.0100    0.0100    0.0100    0.0100    0.0100
    0.0100    0.0100    0.0100    0.0100    0.0100    0.0100    0.0100    0.0100
    0.0100    0.0100    0.0100    0.0100    0.0100    0.0100    0.0100    0.0100
    0.0100    0.0100    0.0100    0.0100    0.0100    0.0100    0.0100    0.0100
    0.0100    0.0100    0.0100    0.0100    0.0100    0.0100    0.0100    0.0100
    0.0100    0.0100    0.0100    0.0100    0.0100    0.0100    0.0100    0.0100
    0.0100    0.0100    0.0100    0.0100    0.0100    0.0100    0.0100    0.0100
    0.0100    0.0100    0.0100    0.0100    0.0100    0.0100    0.0100    0.0100
    0.0100    0.0100    0.0100    0.0100    0.0100    0.0100    0.0100    0.0100
    0.0100    0.0100    0.0100    0.0100    0.0100    0.0100    0.0100    0.0100
    0.0100    0.0100    0.0100    0.0100    0.0100    0.0100    0.0100    0.0100
    0.0100    0.0100    0.0100    0.0100    0.0100    0.0100    0.0100    0.0100
    0.0100    0.0100    0.0100    0.0100    0.0100    0.0100    0.0100    0.0100
    0.0100    0.0100    0.0100    0.0100    0.0100    0.0100    0.0100    0.0100
    0.0100    0.0100    0.0100    0.0100    0.0100    0.0100    0.0100    0.0100
    0.0100    0.0100    0.0100    0.0100    0.0100    0.0100    0.0100    0.0100
    0.0100    0.0100    0.0100    0.0100    0.0100    0.0100    0.0100    0.0100
    0.0100    0.0100    0.0100    0.0100    0.0100    0.0100    0.0100    0.0100
    0.0100    0.0100    0.0100    0.0100    0.0100    0.0100    0.0100    0.0100
    0.0100    0.0100
   </PP_RAB>
 </PP_MESH>
  <PP_LOCAL type="real"  size=" 602" columns="4">
   -4.3179636807E+01   -4.3179604530E+01   -4.3179980771E+01   -4.3180145488E+01
   -4.3179478636E+01   -4.3177240874E+01   -4.3172666248E+01   -4.3165043586E+01
   -4.3153775449E+01   -4.3138410720E+01   -4.3118652989E+01   -4.3094350548E+01
   -4.3065474927E+01   -4.3032094302E+01   -4.2994346519E+01   -4.2952414737E+01
   -4.2906507189E+01   -4.2856841478E+01   -4.2803633113E+01   -4.2747087695E+01
   -4.2687395992E+01   -4.2624731219E+01   -4.2559247888E+01   -4.2491081726E+01
   -4.2420350294E+01   -4.2347154010E+01   -4.2271577378E+01   -4.2193690303E+01
   -4.2113549394E+01   -4.2031199207E+01   -4.1946673401E+01   -4.1859995792E+01
   -4.1771181318E+01   -4.1680236911E+01   -4.1587162246E+01   -4.1491950496E+01
   -4.1394588931E+01   -4.1295059561E+01   -4.1193339678E+01   -4.1089402413E+01
   -4.0983217277E+01   -4.0874750705E+01   -4.0763966615E+01   -4.0650826987E+01
   -4.0535292473E+01   -4.0417323048E+01   -4.0296878687E+01   -4.0173920087E+01
   -4.0048409414E+01   -3.9920311066E+01   -3.9789592500E+01   -3.9656225002E+01
   -3.9520184415E+01   -3.9381452019E+01   -3.9240015111E+01   -3.9095867662E+01
   -3.8949010983E+01   -3.8799453950E+01   -3.8647213647E+01   -3.8492315264E+01
   -3.8334792447E+01   -3.8174687145E+01   -3.8012049305E+01   -3.7846936958E+01
   -3.7679415412E+01   -3.7509556917E+01   -3.7337440253E+01   -3.7163149845E+01
   -3.6986775140E+01   -3.6808410050E+01   -3.6628152138E+01   -3.6446101909E+01
   -3.6262362173E+01   -3.6077037398E+01   -3.5890233153E+01   -3.5702055531E+01
   -3.5512610670E+01   -3.5322004332E+01   -3.5130341523E+01   -3.4937726176E+01
   -3.4744260876E+01   -3.4550046630E+01   -3.4355182684E+01   -3.4159766365E+01
   -3.3963892959E+01   -3.3767655607E+01   -3.3571145230E+01   -3.3374450456E+01
   -3.3177657566E+01   -3.2980850442E+01   -3.2784110523E+01   -3.2587516763E+01
   -3.2391145578E+01   -3.2195070809E+01   -3.1999363665E+01   -3.1804092673E+01
   -3.1609323621E+01   -3.1415119546E+01   -3.1221540608E+01   -3.1028643928E+01
   -3.0836483679E+01   -3.0645110960E+01   -3.0454573722E+01   -3.0264916731E+01
   -3.0076181641E+01   -2.9888406337E+01   -2.9701625482E+01   -2.9515870293E+01
   -2.9331168594E+01   -2.9147544838E+01   -2.8965019417E+01   -2.8783609495E+01
   -2.8603328803E+01   -2.8424188137E+01   -2.8246194012E+01   -2.8069350206E+01
   -2.7893657620E+01   -2.7719114425E+01   -2.7545715493E+01   -2.7373453766E+01
   -2.7202320365E+01   -2.7032304104E+01   -2.6863392571E+01   -2.6695572494E+01
   -2.6528829674E+01   -2.6363149757E+01   -2.6198518518E+01   -2.6034922013E+01
   -2.5872347586E+01   -2.5710783396E+01   -2.5550219080E+01   -2.5390646727E+01
   -2.5232059454E+01   -2.5074453255E+01   -2.4917826731E+01   -2.4762179406E+01
   -2.4607515119E+01   -2.4453838912E+01   -2.4301157859E+01   -2.4149482369E+01
   -2.3998823207E+01   -2.3849194144E+01   -2.3700609699E+01   -2.3553085493E+01
   -2.3406638396E+01   -2.3261285308E+01   -2.3117043633E+01   -2.2973930341E+01
   -2.2831962239E+01   -2.2691154582E+01   -2.2551522831E+01   -2.2413078957E+01
   -2.2275835831E+01   -2.2139801575E+01   -2.2004984628E+01   -2.1871389347E+01
   -2.1739018678E+01   -2.1607872920E+01   -2.1477949257E+01   -2.1349243829E+01
   -2.1221748475E+01   -2.1095455317E+01   -2.0970351925E+01   -2.0846426862E+01
   -2.0723665009E+01   -2.0602052178E+01   -2.0481572411E+01   -2.0362209899E+01
   -2.0243949655E+01   -2.0126775626E+01   -2.0010675243E+01   -1.9895633673E+01
   -1.9781641624E+01   -1.9668686820E+01   -1.9556763423E+01   -1.9445862690E+01
   -1.9335981818E+01   -1.9227115994E+01   -1.9119264663E+01   -1.9012426621E+01
   -1.8906602695E+01   -1.8801794233E+01   -1.8698002752E+01   -1.8595230514E+01
   -1.8493479296E+01   -1.8392750362E+01   -1.8293045536E+01   -1.8194363414E+01
   -1.8096705282E+01   -1.8000066713E+01   -1.7904446238E+01   -1.7809837740E+01
   -1.7716235189E+01   -1.7623631527E+01   -1.7532016684E+01   -1.7441382579E+01
   -1.7351716728E+01   -1.7263009183E+01   -1.7175246633E+01   -1.7088416432E+01
   -1.7002505253E+01   -1.6917498274E+01   -1.6833381820E+01   -1.6750140238E+01
   -1.6667758657E+01   -1.6586221809E+01   -1.6505514267E+01   -1.6425620674E+01
   -1.6346526089E+01   -1.6268214989E+01   -1.6190673015E+01   -1.6113885599E+01
   -1.6037838020E+01   -1.5962517683E+01   -1.5887910198E+01   -1.5814003757E+01
   -1.5740786561E+01   -1.5668245778E+01   -1.5596372525E+01   -1.5525155665E+01
   -1.5454585878E+01   -1.5384654978E+01   -1.5315353491E+01   -1.5246673702E+01
   -1.5178607353E+01   -1.5111146176E+01   -1.5044282291E+01   -1.4978007333E+01
   -1.4912313654E+01   -1.4847193911E+01   -1.4782640208E+01   -1.4718645556E+01
   -1.4655202707E+01   -1.4592304196E+01   -1.4529943466E+01   -1.4468113478E+01
   -1.4406807343E+01   -1.4346018745E+01   -1.4285740897E+01   -1.4225967421E+01
   -1.4166692235E+01   -1.4107908812E+01   -1.4049611224E+01   -1.3991793621E+01
   -1.3934449737E+01   -1.3877574036E+01   -1.3821160900E+01   -1.3765204323E+01
   -1.3709699110E+01   -1.3654639874E+01   -1.3600020871E+01   -1.3545837195E+01
   -1.3492083694E+01   -1.3438754879E+01   -1.3385846092E+01   -1.3333352417E+01
   -1.3281268619E+01   -1.3229590243E+01   -1.3178312612E+01   -1.3127430744E+01
   -1.3076940348E+01   -1.3026836985E+01   -1.2977115926E+01   -1.2927773006E+01
   -1.2878804026E+01   -1.2830204511E+01   -1.2781970384E+01   -1.2734097689E+01
   -1.2686582204E+01   -1.2639419908E+01   -1.2592607085E+01   -1.2546139770E+01
   -1.2500013970E+01   -1.2454226201E+01   -1.2408772759E+01   -1.2363649657E+01
   -1.2318853635E+01   -1.2274381162E+01   -1.2230228499E+01   -1.2186392344E+01
   -1.2142869415E+01   -1.2099656232E+01   -1.2056749418E+01   -1.2014145937E+01
   -1.1971842572E+01   -1.1929835857E+01   -1.1888122988E+01   -1.1846700900E+01
   -1.1805566369E+01   -1.1764716471E+01   -1.1724148394E+01   -1.1683859177E+01
   -1.1643845746E+01   -1.1604105532E+01   -1.1564635752E+01   -1.1525433451E+01
   -1.1486496012E+01   -1.1447820870E+01   -1.1409405336E+01   -1.1371246594E+01
   -1.1333342324E+01   -1.1295689997E+01   -1.1258286943E+01   -1.1221130725E+01
   -1.1184219040E+01   -1.1147549476E+01   -1.1111119401E+01   -1.1074926712E+01
   -1.1038969123E+01   -1.1003244265E+01   -1.0967749769E+01   -1.0932483608E+01
   -1.0897443590E+01   -1.0862627387E+01   -1.0828032900E+01   -1.0793658135E+01
   -1.0759501003E+01   -1.0725559230E+01   -1.0691830948E+01   -1.0658314202E+01
   -1.0625006991E+01   -1.0591907129E+01   -1.0559012919E+01   -1.0526322458E+01
   -1.0493833806E+01   -1.0461544950E+01   -1.0429454247E+01   -1.0397559886E+01
   -1.0365859989E+01   -1.0334352691E+01   -1.0303036408E+01   -1.0271909413E+01
   -1.0240969899E+01   -1.0210216120E+01   -1.0179646555E+01   -1.0149259559E+01
   -1.0119053402E+01   -1.0089026427E+01   -1.0059177185E+01   -1.0029504106E+01
   -1.0000005545E+01   -9.9706799085E+00   -9.9415258229E+00   -9.9125417908E+00
   -9.8837262580E+00   -9.8550776702E+00   -9.8265947338E+00   -9.7982760213E+00
   -9.7701200732E+00   -9.7421253528E+00   -9.7142906511E+00   -9.6866146071E+00
   -9.6590958601E+00   -9.6317328738E+00   -9.6045245239E+00   -9.5774695140E+00
   -9.5505665465E+00   -9.5238141882E+00   -9.4972112817E+00   -9.4707566315E+00
   -9.4444490006E+00   -9.4182870649E+00   -9.3922696142E+00   -9.3663955571E+00
   -9.3406637144E+00   -9.3150728772E+00   -9.2896217657E+00   -9.2643093939E+00
   -9.2391346375E+00   -9.2140963720E+00   -9.1891933428E+00   -9.1644245614E+00
   -9.1397889908E+00   -9.1152855590E+00   -9.0909131344E+00   -9.0666706186E+00
   -9.0425570928E+00   -9.0185715349E+00   -8.9947129229E+00   -8.9709800979E+00
   -8.9473721960E+00   -8.9238882624E+00   -8.9005273227E+00   -8.8772883490E+00
   -8.8541703334E+00   -8.8311724485E+00   -8.8082937653E+00   -8.7855333547E+00
   -8.7628901753E+00   -8.7403634035E+00   -8.7179521923E+00   -8.6956556558E+00
   -8.6734728930E+00   -8.6514029073E+00   -8.6294449839E+00   -8.6075982783E+00
   -8.5858619460E+00   -8.5642350844E+00   -8.5427168356E+00   -8.5213064810E+00
   -8.5000032157E+00   -8.4788062344E+00   -8.4577146418E+00   -8.4367276950E+00
   -8.4158446778E+00   -8.3950648226E+00   -8.3743873616E+00   -8.3538114152E+00
   -8.3333363321E+00   -8.3129614050E+00   -8.2926859022E+00   -8.2725090917E+00
   -8.2524301166E+00   -8.2324483951E+00   -8.2125632363E+00   -8.1927739425E+00
   -8.1730798136E+00   -8.1534800284E+00   -8.1339740475E+00   -8.1145612055E+00
   -8.0952408372E+00   -8.0760122742E+00   -8.0568747327E+00   -8.0378277005E+00
   -8.0188705432E+00   -8.0000026267E+00   -7.9812233168E+00   -7.9625318596E+00
   -7.9439277653E+00   -7.9254104326E+00   -7.9069792568E+00   -7.8886336332E+00
   -7.8703728530E+00   -7.8521964221E+00   -7.8341037813E+00   -7.8160943540E+00
   -7.7981675638E+00   -7.7803227522E+00   -7.7625594047E+00   -7.7448770096E+00
   -7.7272750171E+00   -7.7097528777E+00   -7.6923099886E+00   -7.6749458001E+00
   -7.6576598524E+00   -7.6404516214E+00   -7.6233205831E+00   -7.6062661958E+00
   -7.5892878611E+00   -7.5723851747E+00   -7.5555576369E+00   -7.5388047481E+00
   -7.5221260087E+00   -7.5055208317E+00   -7.4889887991E+00   -7.4725294584E+00
   -7.4561423330E+00   -7.4398269468E+00   -7.4235827833E+00   -7.4074093448E+00
   -7.3913062463E+00   -7.3752730334E+00   -7.3593092522E+00   -7.3434144485E+00
   -7.3275880764E+00   -7.3118297777E+00   -7.2961391333E+00   -7.2805157101E+00
   -7.2649590752E+00   -7.2494687625E+00   -7.2340443073E+00   -7.2186853675E+00
   -7.2033915302E+00   -7.1881623828E+00   -7.1729975124E+00   -7.1578964361E+00
   -7.1428587926E+00   -7.1278842197E+00   -7.1129723239E+00   -7.0981227116E+00
   -7.0833349893E+00   -7.0686086660E+00   -7.0539434634E+00   -7.0393390063E+00
   -7.0247949195E+00   -7.0103108277E+00   -6.9958863322E+00   -6.9815210121E+00
   -6.9672145825E+00   -6.9529666858E+00   -6.9387769642E+00   -6.9246450599E+00
   -6.9105705761E+00   -6.8965531449E+00   -6.8825924809E+00   -6.8686882431E+00
   -6.8548400902E+00   -6.8410476813E+00   -6.8273106279E+00   -6.8136285988E+00
   -6.8000013141E+00   -6.7864284485E+00   -6.7729096769E+00   -6.7594446740E+00
   -6.7460330658E+00   -6.7326745424E+00   -6.7193688351E+00   -6.7061156340E+00
   -6.6929146290E+00   -6.6797655102E+00   -6.6666679231E+00   -6.6536215649E+00
   -6.6406261839E+00   -6.6276814846E+00   -6.6147871714E+00   -6.6019429488E+00
   -6.5891484877E+00   -6.5764034781E+00   -6.5637076910E+00   -6.5510608446E+00
   -6.5384626571E+00   -6.5259128466E+00   -6.5134111145E+00   -6.5009571313E+00
   -6.4885506951E+00   -6.4761915372E+00   -6.4638793889E+00   -6.4516139815E+00
   -6.4393950464E+00   -6.4272222388E+00   -6.4150953723E+00   -6.4030141958E+00
   -6.3909784533E+00   -6.3789878885E+00   -6.3670422453E+00   -6.3551412195E+00
   -6.3432845775E+00   -6.3314721074E+00   -6.3197035650E+00   -6.3079787060E+00
   -6.2962972861E+00   -6.2846590464E+00   -6.2730636963E+00   -6.2615110658E+00
   -6.2500009221E+00   -6.2385330325E+00   -6.2271071640E+00   -6.2157230837E+00
   -6.2043805057E+00   -6.1930792342E+00   -6.1818190707E+00   -6.1705997929E+00
   -6.1594211790E+00   -6.1482830070E+00   -6.1371850450E+00   -6.1261270176E+00
   -6.1151087775E+00   -6.1041301130E+00   -6.0931908124E+00   -6.0822906641E+00
   -6.0714294563E+00   -6.0606069421E+00   -6.0498229121E+00   -6.0390772019E+00
   -6.0283696100E+00   -6.0176999345E+00   -6.0070679735E+00   -5.9964735254E+00
   -5.9859163345E+00   -5.9753962423E+00   -5.9649130737E+00   -5.9544666364E+00
   -5.9440567380E+00   -5.9336831861E+00   -5.9233457882E+00   -5.9130442867E+00
   -5.9027785592E+00   -5.8925484258E+00   -5.8823537031E+00   -5.8721942077E+00
   -5.8620697562E+00   -5.8519801608E+00   -5.8419251798E+00   -5.8319047012E+00
   -5.8219185501E+00   -5.8119665515E+00   -5.8020485308E+00   -5.7921643128E+00
   -5.7823137168E+00   -5.7724965147E+00   -5.7627125995E+00   -5.7529618044E+00
   -5.7432439626E+00   -5.7335589075E+00   -5.7239064723E+00   -5.7142864880E+00
   -5.7046987285E+00   -5.6951430965E+00   -5.6856194331E+00   -5.6761275792E+00
   -5.6666673760E+00   -5.6572386644E+00
  </PP_LOCAL>
 <PP_NONLOCAL>
   <PP_BETA.1
       type="real"
       size=" 602"
       columns="4"
       index="1"
       angular_momentum="0"
       cutoff_radius_index=" 222"
       cutoff_radius="    2.2100000000E+00" >
    0.0000000000E+00   -3.9392696921E-02   -7.8745485250E-02   -1.1801852043E-01
   -1.5717208583E-01   -1.9616665629E-01   -2.3496296118E-01   -2.7352204688E-01
   -3.1180533838E-01   -3.4977469998E-01   -3.8739249492E-01   -4.2462164373E-01
   -4.6142568122E-01   -4.9776881197E-01   -5.3361596415E-01   -5.6893284165E-01
   -6.0368597426E-01   -6.3784276595E-01   -6.7137154099E-01   -7.0424158797E-01
   -7.3642320155E-01   -7.6788772184E-01   -7.9860757147E-01   -8.2855629014E-01
   -8.5770856669E-01   -8.8604026862E-01   -9.1352846912E-01   -9.4015147141E-01
   -9.6588883045E-01   -9.9072137219E-01   -1.0146312101E+00   -1.0376017592E+00
   -1.0596177473E+00   -1.0806652238E+00   -1.1007315665E+00   -1.1198054848E+00
   -1.1378770217E+00   -1.1549375525E+00   -1.1709797819E+00   -1.1859977384E+00
   -1.1999867666E+00   -1.2129435178E+00   -1.2248659380E+00   -1.2357532543E+00
   -1.2456059597E+00   -1.2544257957E+00   -1.2622157332E+00   -1.2689799525E+00
   -1.2747238210E+00   -1.2794538705E+00   -1.2831777713E+00   -1.2859043075E+00
   -1.2876433512E+00   -1.2884058306E+00   -1.2882037055E+00   -1.2870499359E+00
   -1.2849584492E+00   -1.2819441149E+00   -1.2780227042E+00   -1.2732108669E+00
   -1.2675260911E+00   -1.2609866724E+00   -1.2536116865E+00   -1.2454209398E+00
   -1.2364349517E+00   -1.2266749153E+00   -1.2161626520E+00   -1.2049205906E+00
   -1.1929717330E+00   -1.1803396057E+00   -1.1670482333E+00   -1.1531221053E+00
   -1.1385861394E+00   -1.1234656516E+00   -1.1077863067E+00   -1.0915740943E+00
   -1.0748552939E+00   -1.0576564385E+00   -1.0400042800E+00   -1.0219257540E+00
   -1.0034479458E+00   -9.8459805532E-01   -9.6540336277E-01   -9.4589119430E-01
   -9.2608888754E-01   -9.0602375735E-01   -8.8572306161E-01   -8.6521396712E-01
   -8.4452351558E-01   -8.2367858963E-01   -8.0270587913E-01   -7.8163184747E-01
   -7.6048269818E-01   -7.3928434164E-01   -7.1806236216E-01   -6.9684198531E-01