<UPF version="2.0.1">
  <PP_INFO>

 This pseudopotential file has been produced using the code
 ONCVPSP  (Optimized Norm-Conservinng Vanderbilt PSeudopotential)
 scalar-relativistic version 2.1.1, 03/26/2014 by D. R. Hamann
 The code is available through a link at URL www.mat-simresearch.com.
 Documentation with the package provides a full discription of the
 input data below.


 While it is not required under the terms of the GNU GPL, it is
 suggested that you cite D. R. Hamann, Phys. Rev. B 88, 085117 (2013)
 in any publication using these pseudopotentials.


 Copyright 2015 The Regents of the University of California
 
 This work is licensed under the Creative Commons Attribution-ShareAlike 
 4.0 International License. To view a copy of this license, visit 
 http://creativecommons.org/licenses/by-sa/4.0/ or send a letter to 
 Creative Commons, PO Box 1866, Mountain View, CA 94042, USA.
 
 This pseudopotential is part of the Schlipf-Gygi norm-conserving 
 pseudopotential library. Its construction parameters were tuned to 
 reproduce materials of a training set with very high accuracy and 
 should be suitable as a general purpose pseudopotential to treat a 
 variety of different compounds. For details of the construction and 
 testing of the pseudopotential please refer to:
 
 [insert reference to paper here]
 
 We kindly ask that you include this reference in all publications 
 associated to this pseudopotential.


    <PP_INPUTFILE>
# ATOM AND REFERENCE CONFIGURATION
# atsym  z    nc    nv    iexc   psfile
  Cr 24.00     3     4     4      upf
#
#   n    l    f        energy (Ha)
    1    0    2.00
    2    0    2.00
    2    1    6.00
    3    0    2.00
    3    1    6.00
    4    0    2.00
    3    2    4.00
#
# PSEUDOPOTENTIAL AND OPTIMIZATION
# lmax
    2
#
#   l,   rc,     ep,   ncon, nbas, qcut
    0   2.20727  -2.86513    5    8   6.20166
    1   2.37104  -1.81060    5    8   7.48991
    2   2.37104  -0.22031    5    8   6.97871
#
# LOCAL POTENTIAL
# lloc, lpopt,  rc(5),   dvloc0
    4    5   2.00637      0.00000
#
# VANDERBILT-KLEINMAN-BYLANDER PROJECTORs
# l, nproj, debl
    0    2   2.68461
    1    2   1.75876
    2    2   0.80224
#
# MODEL CORE CHARGE
# icmod, fcfact
    0   0.00000
#
# LOG DERIVATIVE ANALYSIS
# epsh1, epsh2, depsh
   -5.00    3.00    0.02
#
# OUTPUT GRID
# rlmax, drl
    6.00    0.01
#
# TEST CONFIGURATIONS
# ncnf
    0
# nvcnf
#   n    l    f
    </PP_INPUTFILE>
  </PP_INFO>
  <!--                               -->
  <!-- END OF HUMAN READABLE SECTION -->
  <!--                               -->
    <PP_HEADER
       generated="Generated using ONCVPSP code by D. R. Hamann"
       author="Martin Schlipf and Francois Gygi"
       date="150105"
       comment=""
       element="Cr"
       pseudo_type="NC"
       relativistic="scalar"
       is_ultrasoft="F"
       is_paw="F"
       is_coulomb="F"
       has_so="F"
       has_wfc="F"
       has_gipaw="F"
       core_correction="F"
       functional="PBE"
       z_valence="   14.00"
       total_psenergy="  -8.34325932061E+01"
       rho_cutoff="   6.01000000000E+00"
       l_max="2"
       l_local="-1"
       mesh_size="   602"
       number_of_wfc="0"
       number_of_proj="6"/>
 <PP_MESH>
   <PP_R type="real"  size=" 602" columns="8">
    0.0000    0.0100    0.0200    0.0300    0.0400    0.0500    0.0600    0.0700
    0.0800    0.0900    0.1000    0.1100    0.1200    0.1300    0.1400    0.1500
    0.1600    0.1700    0.1800    0.1900    0.2000    0.2100    0.2200    0.2300
    0.2400    0.2500    0.2600    0.2700    0.2800    0.2900    0.3000    0.3100
    0.3200    0.3300    0.3400    0.3500    0.3600    0.3700    0.3800    0.3900
    0.4000    0.4100    0.4200    0.4300    0.4400    0.4500    0.4600    0.4700
    0.4800    0.4900    0.5000    0.5100    0.5200    0.5300    0.5400    0.5500
    0.5600    0.5700    0.5800    0.5900    0.6000    0.6100    0.6200    0.6300
    0.6400    0.6500    0.6600    0.6700    0.6800    0.6900    0.7000    0.7100
    0.7200    0.7300    0.7400    0.7500    0.7600    0.7700    0.7800    0.7900
    0.8000    0.8100    0.8200    0.8300    0.8400    0.8500    0.8600    0.8700
    0.8800    0.8900    0.9000    0.9100    0.9200    0.9300    0.9400    0.9500
    0.9600    0.9700    0.9800    0.9900    1.0000    1.0100    1.0200    1.0300
    1.0400    1.0500    1.0600    1.0700    1.0800    1.0900    1.1000    1.1100
    1.1200    1.1300    1.1400    1.1500    1.1600    1.1700    1.1800    1.1900
    1.2000    1.2100    1.2200    1.2300    1.2400    1.2500    1.2600    1.2700
    1.2800    1.2900    1.3000    1.3100    1.3200    1.3300    1.3400    1.3500
    1.3600    1.3700    1.3800    1.3900    1.4000    1.4100    1.4200    1.4300
    1.4400    1.4500    1.4600    1.4700    1.4800    1.4900    1.5000    1.5100
    1.5200    1.5300    1.5400    1.5500    1.5600    1.5700    1.5800    1.5900
    1.6000    1.6100    1.6200    1.6300    1.6400    1.6500    1.6600    1.6700
    1.6800    1.6900    1.7000    1.7100    1.7200    1.7300    1.7400    1.7500
    1.7600    1.7700    1.7800    1.7900    1.8000    1.8100    1.8200    1.8300
    1.8400    1.8500    1.8600    1.8700    1.8800    1.8900    1.9000    1.9100
    1.9200    1.9300    1.9400    1.9500    1.9600    1.9700    1.9800    1.9900
    2.0000    2.0100    2.0200    2.0300    2.0400    2.0500    2.0600    2.0700
    2.0800    2.0900    2.1000    2.1100    2.1200    2.1300    2.1400    2.1500
    2.1600    2.1700    2.1800    2.1900    2.2000    2.2100    2.2200    2.2300
    2.2400    2.2500    2.2600    2.2700    2.2800    2.2900    2.3000    2.3100
    2.3200    2.3300    2.3400    2.3500    2.3600    2.3700    2.3800    2.3900
    2.4000    2.4100    2.4200    2.4300    2.4400    2.4500    2.4600    2.4700
    2.4800    2.4900    2.5000    2.5100    2.5200    2.5300    2.5400    2.5500
    2.5600    2.5700    2.5800    2.5900    2.6000    2.6100    2.6200    2.6300
    2.6400    2.6500    2.6600    2.6700    2.6800    2.6900    2.7000    2.7100
    2.7200    2.7300    2.7400    2.7500    2.7600    2.7700    2.7800    2.7900
    2.8000    2.8100    2.8200    2.8300    2.8400    2.8500    2.8600    2.8700
    2.8800    2.8900    2.9000    2.9100    2.9200    2.9300    2.9400    2.9500
    2.9600    2.9700    2.9800    2.9900    3.0000    3.0100    3.0200    3.0300
    3.0400    3.0500    3.0600    3.0700    3.0800    3.0900    3.1000    3.1100
    3.1200    3.1300    3.1400    3.1500    3.1600    3.1700    3.1800    3.1900
    3.2000    3.2100    3.2200    3.2300    3.2400    3.2500    3.2600    3.2700
    3.2800    3.2900    3.3000    3.3100    3.3200    3.3300    3.3400    3.3500
    3.3600    3.3700    3.3800    3.3900    3.4000    3.4100    3.4200    3.4300
    3.4400    3.4500    3.4600    3.4700    3.4800    3.4900    3.5000    3.5100
    3.5200    3.5300    3.5400    3.5500    3.5600    3.5700    3.5800    3.5900
    3.6000    3.6100    3.6200    3.6300    3.6400    3.6500    3.6600    3.6700
    3.6800    3.6900    3.7000    3.7100    3.7200    3.7300    3.7400    3.7500
    3.7600    3.7700    3.7800    3.7900    3.8000    3.8100    3.8200    3.8300
    3.8400    3.8500    3.8600    3.8700    3.8800    3.8900    3.9000    3.9100
    3.9200    3.9300    3.9400    3.9500    3.9600    3.9700    3.9800    3.9900
    4.0000    4.0100    4.0200    4.0300    4.0400    4.0500    4.0600    4.0700
    4.0800    4.0900    4.1000    4.1100    4.1200    4.1300    4.1400    4.1500
    4.1600    4.1700    4.1800    4.1900    4.2000    4.2100    4.2200    4.2300
    4.2400    4.2500    4.2600    4.2700    4.2800    4.2900    4.3000    4.3100
    4.3200    4.3300    4.3400    4.3500    4.3600    4.3700    4.3800    4.3900
    4.4000    4.4100    4.4200    4.4300    4.4400    4.4500    4.4600    4.4700
    4.4800    4.4900    4.5000    4.5100    4.5200    4.5300    4.5400    4.5500
    4.5600    4.5700    4.5800    4.5900    4.6000    4.6100    4.6200    4.6300
    4.6400    4.6500    4.6600    4.6700    4.6800    4.6900    4.7000    4.7100
    4.7200    4.7300    4.7400    4.7500    4.7600    4.7700    4.7800    4.7900
    4.8000    4.8100    4.8200    4.8300    4.8400    4.8500    4.8600    4.8700
    4.8800    4.8900    4.9000    4.9100    4.9200    4.9300    4.9400    4.9500
    4.9600    4.9700    4.9800    4.9900    5.0000    5.0100    5.0200    5.0300
    5.0400    5.0500    5.0600    5.0700    5.0800    5.0900    5.1000    5.1100
    5.1200    5.1300    5.1400    5.1500    5.1600    5.1700    5.1800    5.1900
    5.2000    5.2100    5.2200    5.2300    5.2400    5.2500    5.2600    5.2700
    5.2800    5.2900    5.3000    5.3100    5.3200    5.3300    5.3400    5.3500
    5.3600    5.3700    5.3800    5.3900    5.4000    5.4100    5.4200    5.4300
    5.4400    5.4500    5.4600    5.4700    5.4800    5.4900    5.5000    5.5100
    5.5200    5.5300    5.5400    5.5500    5.5600    5.5700    5.5800    5.5900
    5.6000    5.6100    5.6200    5.6300    5.6400    5.6500    5.6600    5.6700
    5.6800    5.6900    5.7000    5.7100    5.7200    5.7300    5.7400    5.7500
    5.7600    5.7700    5.7800    5.7900    5.8000    5.8100    5.8200    5.8300
    5.8400    5.8500    5.8600    5.8700    5.8800    5.8900    5.9000    5.9100
    5.9200    5.9300    5.9400    5.9500    5.9600    5.9700    5.9800    5.9900
    6.0000    6.0100
   </PP_R>
   <PP_RAB type="real"  size=" 602" columns="8">
    0.0100    0.0100    0.0100    0.0100    0.0100    0.0100    0.0100    0.0100
    0.0100    0.0100    0.0100    0.0100    0.0100    0.0100    0.0100    0.0100
    0.0100    0.0100    0.0100    0.0100    0.0100    0.0100    0.0100    0.0100
    0.0100    0.0100    0.0100    0.0100    0.0100    0.0100    0.0100    0.0100
    0.0100    0.0100    0.0100    0.0100    0.0100    0.0100    0.0100    0.0100
    0.0100    0.0100    0.0100    0.0100    0.0100    0.0100    0.0100    0.0100
    0.0100    0.0100    0.0100    0.0100    0.0100    0.0100    0.0100    0.0100
    0.0100    0.0100    0.0100    0.0100    0.0100    0.0100    0.0100    0.0100
    0.0100    0.0100    0.0100    0.0100    0.0100    0.0100    0.0100    0.0100
    0.0100    0.0100    0.0100    0.0100    0.0100    0.0100    0.0100    0.0100
    0.0100    0.0100    0.0100    0.0100    0.0100    0.0100    0.0100    0.0100
    0.0100    0.0100    0.0100    0.0100    0.0100    0.0100    0.0100    0.0100
    0.0100    0.0100    0.0100    0.0100    0.0100    0.0100    0.0100    0.0100
    0.0100    0.0100    0.0100    0.0100    0.0100    0.0100    0.0100    0.0100
    0.0100    0.0100    0.0100    0.0100    0.0100    0.0100    0.0100    0.0100
    0.0100    0.0100    0.0100    0.0100    0.0100    0.0100    0.0100    0.0100
    0.0100    0.0100    0.0100    0.0100    0.0100    0.0100    0.0100    0.0100
    0.0100    0.0100    0.0100    0.0100    0.0100    0.0100    0.0100    0.0100
    0.0100    0.0100    0.0100    0.0100    0.0100    0.0100    0.0100    0.0100
    0.0100    0.0100    0.0100    0.0100    0.0100    0.0100    0.0100    0.0100
    0.0100    0.0100    0.0100    0.0100    0.0100    0.0100    0.0100    0.0100
    0.0100    0.0100    0.0100    0.0100    0.0100    0.0100    0.0100    0.0100
    0.0100    0.0100    0.0100    0.0100    0.0100    0.0100    0.0100    0.0100
    0.0100    0.0100    0.0100    0.0100    0.0100    0.0100    0.0100    0.0100
    0.0100    0.0100    0.0100    0.0100    0.0100    0.0100    0.0100    0.0100
    0.0100    0.0100    0.0100    0.0100    0.0100    0.0100    0.0100    0.0100
    0.0100    0.0100    0.0100    0.0100    0.0100    0.0100    0.0100    0.0100
    0.0100    0.0100    0.0100    0.0100    0.0100    0.0100    0.0100    0.0100
    0.0100    0.0100    0.0100    0.0100    0.0100    0.0100    0.0100    0.0100
    0.0100    0.0100    0.0100    0.0100    0.0100    0.0100    0.0100    0.0100
    0.0100    0.0100    0.0100    0.0100    0.0100    0.0100    0.0100    0.0100
    0.0100    0.0100    0.0100    0.0100    0.0100    0.0100    0.0100    0.0100
    0.0100    0.0100    0.0100    0.0100    0.0100    0.0100    0.0100    0.0100
    0.0100    0.0100    0.0100    0.0100    0.0100    0.0100    0.0100    0.0100
    0.0100    0.0100    0.0100    0.0100    0.0100    0.0100    0.0100    0.0100
    0.0100    0.0100    0.0100    0.0100    0.0100    0.0100    0.0100    0.0100
    0.0100    0.0100    0.0100    0.0100    0.0100    0.0100    0.0100    0.0100
    0.0100    0.0100    0.0100    0.0100    0.0100    0.0100    0.0100    0.0100
    0.0100    0.0100    0.0100    0.0100    0.0100    0.0100    0.0100    0.0100
    0.0100    0.0100    0.0100    0.0100    0.0100    0.0100    0.0100    0.0100
    0.0100    0.0100    0.0100    0.0100    0.0100    0.0100    0.0100    0.0100
    0.0100    0.0100    0.0100    0.0100    0.0100    0.0100    0.0100    0.0100
    0.0100    0.0100    0.0100    0.0100    0.0100    0.0100    0.0100    0.0100
    0.0100    0.0100    0.0100    0.0100    0.0100    0.0100    0.0100    0.0100
    0.0100    0.0100    0.0100    0.0100    0.0100    0.0100    0.0100    0.0100
    0.0100    0.0100    0.0100    0.0100    0.0100    0.0100    0.0100    0.0100
    0.0100    0.0100    0.0100    0.0100    0.0100    0.0100    0.0100    0.0100
    0.0100    0.0100    0.0100    0.0100    0.0100    0.0100    0.0100    0.0100
    0.0100    0.0100    0.0100    0.0100    0.0100    0.0100    0.0100    0.0100
    0.0100    0.0100    0.0100    0.0100    0.0100    0.0100    0.0100    0.0100
    0.0100    0.0100    0.0100    0.0100    0.0100    0.0100    0.0100    0.0100
    0.0100    0.0100    0.0100    0.0100    0.0100    0.0100    0.0100    0.0100
    0.0100    0.0100    0.0100    0.0100    0.0100    0.0100    0.0100    0.0100
    0.0100    0.0100    0.0100    0.0100    0.0100    0.0100    0.0100    0.0100
    0.0100    0.0100    0.0100    0.0100    0.0100    0.0100    0.0100    0.0100
    0.0100    0.0100    0.0100    0.0100    0.0100    0.0100    0.0100    0.0100
    0.0100    0.0100    0.0100    0.0100    0.0100    0.0100    0.0100    0.0100
    0.0100    0.0100    0.0100    0.0100    0.0100    0.0100    0.0100    0.0100
    0.0100    0.0100    0.0100    0.0100    0.0100    0.0100    0.0100    0.0100
    0.0100    0.0100    0.0100    0.0100    0.0100    0.0100    0.0100    0.0100
    0.0100    0.0100    0.0100    0.0100    0.0100    0.0100    0.0100    0.0100
    0.0100    0.0100    0.0100    0.0100    0.0100    0.0100    0.0100    0.0100
    0.0100    0.0100    0.0100    0.0100    0.0100    0.0100    0.0100    0.0100
    0.0100    0.0100    0.0100    0.0100    0.0100    0.0100    0.0100    0.0100
    0.0100    0.0100    0.0100    0.0100    0.0100    0.0100    0.0100    0.0100
    0.0100    0.0100    0.0100    0.0100    0.0100    0.0100    0.0100    0.0100
    0.0100    0.0100    0.0100    0.0100    0.0100    0.0100    0.0100    0.0100
    0.0100    0.0100    0.0100    0.0100    0.0100    0.0100    0.0100    0.0100
    0.0100    0.0100    0.0100    0.0100    0.0100    0.0100    0.0100    0.0100
    0.0100    0.0100    0.0100    0.0100    0.0100    0.0100    0.0100    0.0100
    0.0100    0.0100    0.0100    0.0100    0.0100    0.0100    0.0100    0.0100
    0.0100    0.0100    0.0100    0.0100    0.0100    0.0100    0.0100    0.0100
    0.0100    0.0100    0.0100    0.0100    0.0100    0.0100    0.0100    0.0100
    0.0100    0.0100    0.0100    0.0100    0.0100    0.0100    0.0100    0.0100
    0.0100    0.0100    0.0100    0.0100    0.0100    0.0100    0.0100    0.0100
    0.0100    0.0100
   </PP_RAB>
 </PP_MESH>
  <PP_LOCAL type="real"  size=" 602" columns="4">
   -3.3457868054E+01   -3.3457725656E+01   -3.3457578308E+01   -3.3457079772E+01
   -3.3455883807E+01   -3.3453565324E+01   -3.3449666280E+01   -3.3443739377E+01
   -3.3435383841E+01   -3.3424270076E+01   -3.3410152552E+01   -3.3392872223E+01
   -3.3372350963E+01   -3.3348580800E+01   -3.3321610586E+01   -3.3291532097E+01
   -3.3258467013E+01   -3.3222555573E+01   -3.3183947263E+01   -3.3142793550E+01
   -3.3099242509E+01   -3.3053435041E+01   -3.3005502411E+01   -3.2955564774E+01
   -3.2903730469E+01   -3.2850095856E+01   -3.2794745494E+01   -3.2737752594E+01
   -3.2679179599E+01   -3.2619078835E+01   -3.2557493215E+01   -3.2494456922E+01
   -3.2429996097E+01   -3.2364129495E+01   -3.2296869098E+01   -3.2228220729E+01
   -3.2158184605E+01   -3.2086755913E+01   -3.2013925313E+01   -3.1939679478E+01
   -3.1864001608E+01   -3.1786871930E+01   -3.1708268217E+01   -3.1628166289E+01
   -3.1546540538E+01   -3.1463364438E+01   -3.1378611067E+01   -3.1292253628E+01
   -3.1204265960E+01   -3.1114623043E+01   -3.1023301498E+01   -3.0930280066E+01
   -3.0835540025E+01   -3.0739065639E+01   -3.0640844544E+01   -3.0540867988E+01
   -3.0439131291E+01   -3.0335633828E+01   -3.0230379485E+01   -3.0123376459E+01
   -3.0014637620E+01   -2.9904180242E+01   -2.9792026081E+01   -2.9678201274E+01
   -2.9562736021E+01   -2.9445664565E+01   -2.9327024859E+01   -2.9206858259E+01
   -2.9085209250E+01   -2.8962125228E+01   -2.8837656058E+01   -2.8711853798E+01
   -2.8584772370E+01   -2.8456467279E+01   -2.8326995304E+01   -2.8196414195E+01
   -2.8064782421E+01   -2.7932158930E+01   -2.7798602923E+01   -2.7664173654E+01
   -2.7528930251E+01   -2.7392931555E+01   -2.7256235982E+01   -2.7118901401E+01
   -2.6980985033E+01   -2.6842543355E+01   -2.6703632036E+01   -2.6564305864E+01
   -2.6424618697E+01   -2.6284623414E+01   -2.6144371884E+01   -2.6003914926E+01
   -2.5863302286E+01   -2.5722582611E+01   -2.5581803425E+01   -2.5441011108E+01
   -2.5300250880E+01   -2.5159566774E+01   -2.5019001651E+01   -2.4878597125E+01
   -2.4738393528E+01   -2.4598429948E+01   -2.4458744179E+01   -2.4319372700E+01
   -2.4180350697E+01   -2.4041711958E+01   -2.3903488788E+01   -2.3765712122E+01
   -2.3628411445E+01   -2.3491614882E+01   -2.3355348894E+01   -2.3219638373E+01
   -2.3084506719E+01   -2.2949975883E+01   -2.2816066103E+01   -2.2682795854E+01
   -2.2550182105E+01   -2.2418240440E+01   -2.2286984417E+01   -2.2156426008E+01
   -2.2026575782E+01   -2.1897442742E+01   -2.1769033898E+01   -2.1641355033E+01
   -2.1514410750E+01   -2.1388203524E+01   -2.1262734867E+01   -2.1138005371E+01
   -2.1014013715E+01   -2.0890757950E+01   -2.0768235359E+01   -2.0646441875E+01
   -2.0525373148E+01   -2.0405024199E+01   -2.0285389515E+01   -2.0166463517E+01
   -2.0048240381E+01   -1.9930714505E+01   -1.9813880230E+01   -1.9697732576E+01
   -1.9582266840E+01   -1.9467478847E+01   -1.9353365592E+01   -1.9239924035E+01
   -1.9127153079E+01   -1.9015051780E+01   -1.8903620524E+01   -1.8792860940E+01
   -1.8682774946E+01   -1.8573366669E+01   -1.8464639870E+01   -1.8356600580E+01
   -1.8249254711E+01   -1.8142609610E+01   -1.8036673076E+01   -1.7931453539E+01
   -1.7826960119E+01   -1.7723202075E+01   -1.7620189178E+01   -1.7517931205E+01
   -1.7416437890E+01   -1.7315719128E+01   -1.7215784021E+01   -1.7116642018E+01
   -1.7018301139E+01   -1.6920769824E+01   -1.6824054565E+01   -1.6728162317E+01
   -1.6633097626E+01   -1.6538865601E+01   -1.6445468480E+01   -1.6352909300E+01
   -1.6261187730E+01   -1.6170304636E+01   -1.6080257017E+01   -1.5991043586E+01
   -1.5902658784E+01   -1.5815099263E+01   -1.5728357380E+01   -1.5642427577E+01
   -1.5557301043E+01   -1.5472970113E+01   -1.5389425486E+01   -1.5306658002E+01
   -1.5224658224E+01   -1.5143416427E+01   -1.5062923197E+01   -1.4983169293E+01
   -1.4904145353E+01   -1.4825843522E+01   -1.4748254613E+01   -1.4671372307E+01
   -1.4595188760E+01   -1.4519698262E+01   -1.4444894981E+01   -1.4370773533E+01
   -1.4297329948E+01   -1.4224559278E+01   -1.4152458482E+01   -1.4081023706E+01
   -1.4010251701E+01   -1.3940139207E+01   -1.3870682956E+01   -1.3801879914E+01
   -1.3733726976E+01   -1.3666220979E+01   -1.3599359025E+01   -1.3533137696E+01
   -1.3467553159E+01   -1.3402602401E+01   -1.3338280189E+01   -1.3274582599E+01
   -1.3211504420E+01   -1.3149039637E+01   -1.3087183571E+01   -1.3025928606E+01
   -1.2965268570E+01   -1.2905196402E+01   -1.2845703968E+01   -1.2786784297E+01
   -1.2728428598E+01   -1.2670628595E+01   -1.2613376049E+01   -1.2556661851E+01
   -1.2500477276E+01   -1.2444813501E+01   -1.2389661670E+01   -1.2335012648E+01
   -1.2280858169E+01   -1.2227189563E+01   -1.2173998095E+01   -1.2121276275E+01
   -1.2069015628E+01   -1.2017208552E+01   -1.1965848431E+01   -1.1914927276E+01
   -1.1864439113E+01   -1.1814378158E+01   -1.1764737327E+01   -1.1715512039E+01
   -1.1666697091E+01   -1.1618286779E+01   -1.1570276664E+01   -1.1522661818E+01
   -1.1475437248E+01   -1.1428598367E+01   -1.1382140340E+01   -1.1336058328E+01
   -1.1290348078E+01   -1.1245004994E+01   -1.1200024534E+01   -1.1155402611E+01
   -1.1111134841E+01   -1.1067216905E+01   -1.1023644902E+01   -1.0980414656E+01
   -1.0937522028E+01   -1.0894963313E+01   -1.0852734543E+01   -1.0810831729E+01
   -1.0769251357E+01   -1.0727989667E+01   -1.0687042792E+01   -1.0646407406E+01
   -1.0606079959E+01   -1.0566056676E+01   -1.0526334419E+01   -1.0486909809E+01
   -1.0447779255E+01   -1.0408939685E+01   -1.0370387918E+01   -1.0332120568E+01
   -1.0294134584E+01   -1.0256426985E+01   -1.0218994597E+01   -1.0181834363E+01
   -1.0144943500E+01   -1.0108319050E+01   -1.0071957929E+01   -1.0035857546E+01
   -1.0000015111E+01   -9.9644276493E+00   -9.9290926064E+00   -9.8940073694E+00
   -9.8591691745E+00   -9.8245753868E+00   -9.7902235976E+00   -9.7561112612E+00
   -9.7222356471E+00   -9.6885945404E+00   -9.6551855219E+00   -9.6220060425E+00
   -9.5890537880E+00   -9.5563265423E+00   -9.5238219754E+00   -9.4915376314E+00
   -9.4594714946E+00   -9.4276213662E+00   -9.3959849255E+00   -9.3645600646E+00
   -9.3333447759E+00   -9.3023369603E+00   -9.2715343325E+00   -9.2409350848E+00
   -9.2105372185E+00   -9.1803386536E+00   -9.1503373892E+00   -9.1205316388E+00
   -9.0909194969E+00   -9.0614989145E+00   -9.0322681433E+00   -9.0032254173E+00
   -8.9743689106E+00   -8.9456966444E+00   -8.9172070602E+00   -8.8888984256E+00
   -8.8607689511E+00   -8.8328168570E+00   -8.8050406198E+00   -8.7774385883E+00
   -8.7500090166E+00   -8.7227502970E+00   -8.6956609439E+00   -8.6687393827E+00
   -8.6419839187E+00   -8.6153930887E+00   -8.5889654492E+00   -8.5626994989E+00
   -8.5365936003E+00   -8.5106464082E+00   -8.4848565268E+00   -8.4592225248E+00
   -8.4337428265E+00   -8.4084161806E+00   -8.3832412444E+00   -8.3582166534E+00
   -8.3333408979E+00   -8.3086127979E+00   -8.2840310692E+00   -8.2595944110E+00
   -8.2353013835E+00   -8.2111508568E+00   -8.1871416107E+00   -8.1632724047E+00
   -8.1395418727E+00   -8.1159489154E+00   -8.0924923810E+00   -8.0691710868E+00
   -8.0459837443E+00   -8.0229292658E+00   -8.0000065722E+00   -7.9772145362E+00
   -7.9545519508E+00   -7.9320177224E+00   -7.9096108483E+00   -7.8873302537E+00
   -7.8651748178E+00   -7.8431434248E+00   -7.8212351510E+00   -7.7994489717E+00
   -7.7777838565E+00   -7.7562386534E+00   -7.7348125189E+00   -7.7135044761E+00
   -7.6923135479E+00   -7.6712386569E+00   -7.6502789181E+00   -7.6294334400E+00
   -7.6087012911E+00   -7.5880814917E+00   -7.5675730835E+00   -7.5471752676E+00
   -7.5268871558E+00   -7.5067078601E+00   -7.4866363712E+00   -7.4666719489E+00
   -7.4468137571E+00   -7.4270609489E+00   -7.4074126187E+00   -7.3878679227E+00
   -7.3684261265E+00   -7.3490864227E+00   -7.3298480040E+00   -7.3107099484E+00
   -7.2916715860E+00   -7.2727321582E+00   -7.2538908952E+00   -7.2351469855E+00
   -7.2164996293E+00   -7.1979481759E+00   -7.1794918915E+00   -7.1611300423E+00
   -7.1428618105E+00   -7.1246865309E+00   -7.1066035421E+00   -7.0886121446E+00
   -7.0707116386E+00   -7.0529012091E+00   -7.0351803030E+00   -7.0175482540E+00
   -7.0000043951E+00   -6.9825480305E+00   -6.9651784416E+00   -6.9478950797E+00
   -6.9306973089E+00   -6.9135844930E+00   -6.8965559466E+00   -6.8796110310E+00
   -6.8627492046E+00   -6.8459698609E+00   -6.8292723937E+00   -6.8126561335E+00
   -6.7961205040E+00   -6.7796649758E+00   -6.7632889706E+00   -6.7469919105E+00
   -6.7307731478E+00   -6.7146321515E+00   -6.6985684097E+00   -6.6825813713E+00
   -6.6666704851E+00   -6.6508351304E+00   -6.6350748054E+00   -6.6193890213E+00
   -6.6037772526E+00   -6.5882389739E+00   -6.5727735961E+00   -6.5573806315E+00
   -6.5420596195E+00   -6.5268100591E+00   -6.5116314494E+00   -6.4965232377E+00
   -6.4814849362E+00   -6.4665161171E+00   -6.4516163029E+00   -6.4367850159E+00
   -6.4220217442E+00   -6.4073259870E+00   -6.3926973536E+00   -6.3781353885E+00
   -6.3636396364E+00   -6.3492096307E+00   -6.3348448452E+00   -6.3205449299E+00
   -6.3063094504E+00   -6.2921379727E+00   -6.2780300626E+00   -6.2639852090E+00
   -6.2500030542E+00   -6.2360832010E+00   -6.2222252354E+00   -6.2084287436E+00
   -6.1946932681E+00   -6.1810183982E+00   -6.1674037883E+00   -6.1538490436E+00
   -6.1403537695E+00   -6.1269175667E+00   -6.1135399623E+00   -6.1002206634E+00
   -6.0869592940E+00   -6.0737554777E+00   -6.0606088383E+00   -6.0475189495E+00
   -6.0344854565E+00   -6.0215080388E+00   -6.0085863376E+00   -5.9957199941E+00
   -5.9829086481E+00   -5.9701518600E+00   -5.9574493702E+00   -5.9448008367E+00
   -5.9322059175E+00   -5.9196642706E+00   -5.9071755198E+00   -5.8947393135E+00
   -5.8823553754E+00   -5.8700233794E+00   -5.8577429996E+00   -5.8455139098E+00
   -5.8333357253E+00   -5.8212081661E+00   -5.8091309446E+00   -5.7971037498E+00
   -5.7851262708E+00   -5.7731981968E+00   -5.7613191407E+00   -5.7494888789E+00
   -5.7377071177E+00   -5.7259735606E+00   -5.7142879113E+00   -5.7026498616E+00
   -5.6910590629E+00   -5.6795152983E+00   -5.6680182852E+00   -5.6565677411E+00
   -5.6451633833E+00   -5.6338049094E+00   -5.6224920036E+00   -5.6112244526E+00
   -5.6000019871E+00   -5.5888243376E+00   -5.5776912347E+00   -5.5666023866E+00
   -5.5555574977E+00   -5.5445563632E+00   -5.5335987261E+00   -5.5226843296E+00
   -5.5118129168E+00   -5.5009842115E+00   -5.4901979260E+00   -5.4794538685E+00
   -5.4687517940E+00   -5.4580914578E+00   -5.4474726149E+00   -5.4368950090E+00
   -5.4263583491E+00   -5.4158624608E+00   -5.4054071105E+00   -5.3949920649E+00
   -5.3846170905E+00   -5.3742819536E+00   -5.3639863538E+00   -5.3537301338E+00
   -5.3435130722E+00   -5.3333349465E+00   -5.3231955341E+00   -5.3130946124E+00
   -5.3030319094E+00   -5.2930072408E+00   -5.2830204126E+00   -5.2730712128E+00
   -5.2631594290E+00   -5.2532848490E+00   -5.2434472339E+00   -5.2336463623E+00
   -5.2238820714E+00   -5.2141541590E+00   -5.2044624226E+00   -5.1948066598E+00
   -5.1851866685E+00   -5.1756021824E+00   -5.1660530721E+00   -5.1565391448E+00
   -5.1470602075E+00   -5.1376160672E+00   -5.1282065311E+00   -5.1188313734E+00
   -5.1094904081E+00   -5.1001834816E+00   -5.0909104100E+00   -5.0816710093E+00
   -5.0724650958E+00   -5.0632924853E+00   -5.0541529355E+00   -5.0450463265E+00
   -5.0359724855E+00   -5.0269312370E+00   -5.0179224057E+00   -5.0089458162E+00
   -5.0000012736E+00   -4.9910885840E+00   -4.9822076208E+00   -4.9733582167E+00
   -4.9645402047E+00   -4.9557534175E+00   -4.9469976878E+00   -4.9382728128E+00
   -4.9295786425E+00   -4.9209150405E+00   -4.9122818475E+00   -4.9036789041E+00
   -4.8951060509E+00   -4.8865631285E+00   -4.8780499310E+00   -4.8695663405E+00
   -4.8611122158E+00   -4.8526874050E+00   -4.8442917561E+00   -4.8359251171E+00
   -4.8275873360E+00   -4.8192782091E+00   -4.8109976388E+00   -4.8027454841E+00
   -4.7945216000E+00   -4.7863258416E+00   -4.7781580642E+00   -4.7700181227E+00
   -4.7619058195E+00   -4.7538210674E+00   -4.7457637298E+00   -4.7377336684E+00
   -4.7297307452E+00   -4.7217548220E+00   -4.7138057606E+00   -4.7058833738E+00
   -4.6979875744E+00   -4.6901182348E+00   -4.6822752232E+00   -4.6744584078E+00
   -4.6666676570E+00   -4.6589028390E+00
  </PP_LOCAL>
 <PP_NONLOCAL>
   <PP_BETA.1
       type="real"
       size=" 602"
       columns="4"
       index="1"
       angular_momentum="0"
       cutoff_radius_index=" 242"
       cutoff_radius="    2.4100000000E+00" >
    0.0000000000E+00    2.9498962580E-02    5.8977047690E-02    8.8413411000E-02
    1.1778727432E-01    1.4707795832E-01    1.7626491485E-01    2.0532775868E-01
    2.3424629857E-01    2.6300056758E-01    2.9157085238E-01    3.1993772152E-01
    3.4808205265E-01    3.7598505828E-01    4.0362831044E-01    4.3099376363E-01
    4.5806377650E-01    4.8482113173E-01    5.1124905442E-01    5.3733122866E-01
    5.6305181247E-01    5.8839545087E-01    6.1334728725E-01    6.3789297288E-01
    6.6201867467E-01    6.8571108111E-01    7.0895740655E-01    7.3174539364E-01
    7.5406331413E-01    7.7589996816E-01    7.9724468180E-01    8.1808730329E-01
    8.3841819776E-01    8.5822824068E-01    8.7750881008E-01    8.9625177771E-01
    9.1444949904E-01    9.3209480270E-01    9.4918097864E-01    9.6570176615E-01
    9.8165134109E-01    9.9702430276E-01    1.0118156605E+00    1.0260208204E+00
    1.0396355712E+00    1.0526560717E+00    1.0650788368E+00    1.0769007252E+00
    1.0881189271E+00    1.0987309525E+00    1.1087346197E+00    1.1181280454E+00
    1.1269096358E+00    1.1350780779E+00    1.1426323313E+00    1.1495716249E+00
    1.1558954474E+00    1.1616035493E+00    1.1666959341E+00    1.1711728635E+00
    1.1750348518E+00    1.1782826721E+00    1.1809173561E+00    1.1829401992E+00
    1.1843527666E+00    1.1851568986E+00    1.1853547190E+00    1.1849486446E+00
    1.1839413943E+00    1.1823360005E+00    1.1801358209E+00    1.1773445512E+00
    1.1739662374E+00    1.1700052911E+00    1.1654665036E+00    1.1603550595E+00
    1.1546765520E+00    1.1484369974E+00    1.1416428501E+00    1.1343010167E+00
    1.1264188698E+00    1.1180042618E+00    1.1090655374E+00    1.0996115452E+00
    1.0896516489E+00    1.0791957370E+00    1.0682542302E+00    1.0568380894E+00
    1.0449588208E+00    1.0326284795E+00    1.0198596715E+00    1.0066655533E+00
    9.9305983069E-01    9.7905675392E-01    9.6467111188E-01    9.4991822347E-01