<UPF version="2.0.1">
  <PP_INFO>

 This pseudopotential file has been produced using the code
 ONCVPSP  (Optimized Norm-Conservinng Vanderbilt PSeudopotential)
 scalar-relativistic version 2.1.1, 03/26/2014 by D. R. Hamann
 The code is available through a link at URL www.mat-simresearch.com.
 Documentation with the package provides a full discription of the
 input data below.


 While it is not required under the terms of the GNU GPL, it is
 suggested that you cite D. R. Hamann, Phys. Rev. B 88, 085117 (2013)
 in any publication using these pseudopotentials.


 Copyright 2015 The Regents of the University of California
 
 This work is licensed under the Creative Commons Attribution-ShareAlike 
 4.0 International License. To view a copy of this license, visit 
 http://creativecommons.org/licenses/by-sa/4.0/ or send a letter to 
 Creative Commons, PO Box 1866, Mountain View, CA 94042, USA.
 
 This pseudopotential is part of the Schlipf-Gygi norm-conserving 
 pseudopotential library. Its construction parameters were tuned to 
 reproduce materials of a training set with very high accuracy and 
 should be suitable as a general purpose pseudopotential to treat a 
 variety of different compounds. For details of the construction and 
 testing of the pseudopotential please refer to:
 
 [insert reference to paper here]
 
 We kindly ask that you include this reference in all publications 
 associated to this pseudopotential.


    <PP_INPUTFILE>
# ATOM AND REFERENCE CONFIGURATION
# atsym  z    nc    nv    iexc   psfile
  Cs 55.00     9     3     4      upf
#
#   n    l    f        energy (Ha)
    1    0    2.00
    2    0    2.00
    2    1    6.00
    3    0    2.00
    3    1    6.00
    3    2   10.00
    4    0    2.00
    4    1    6.00
    4    2   10.00
    5    0    2.00
    5    1    6.00
    6    0    1.00
#
# PSEUDOPOTENTIAL AND OPTIMIZATION
# lmax
    2
#
#   l,   rc,     ep,   ncon, nbas, qcut
    0   2.56157  -0.98239    5    8   4.59617
    1   2.30082  -0.49679    5    8   6.56010
    2   2.19361   0.04706    5    8   4.28019
#
# LOCAL POTENTIAL
# lloc, lpopt,  rc(5),   dvloc0
    4    5   1.79098      0.00000
#
# VANDERBILT-KLEINMAN-BYLANDER PROJECTORs
# l, nproj, debl
    0    2   0.90572
    1    2   1.86520
    2    2   1.81189
#
# MODEL CORE CHARGE
# icmod, fcfact
    0   0.00000
#
# LOG DERIVATIVE ANALYSIS
# epsh1, epsh2, depsh
   -5.00    3.00    0.02
#
# OUTPUT GRID
# rlmax, drl
    6.00    0.01
#
# TEST CONFIGURATIONS
# ncnf
    0
# nvcnf
#   n    l    f
    </PP_INPUTFILE>
  </PP_INFO>
  <!--                               -->
  <!-- END OF HUMAN READABLE SECTION -->
  <!--                               -->
    <PP_HEADER
       generated="Generated using ONCVPSP code by D. R. Hamann"
       author="Martin Schlipf and Francois Gygi"
       date="150415"
       comment=""
       element="Cs"
       pseudo_type="NC"
       relativistic="scalar"
       is_ultrasoft="F"
       is_paw="F"
       is_coulomb="F"
       has_so="F"
       has_wfc="F"
       has_gipaw="F"
       core_correction="F"
       functional="PBE"
       z_valence="    9.00"
       total_psenergy="  -2.01658300063E+01"
       rho_cutoff="   6.01000000000E+00"
       l_max="2"
       l_local="-1"
       mesh_size="   602"
       number_of_wfc="0"
       number_of_proj="6"/>
 <PP_MESH>
   <PP_R type="real"  size=" 602" columns="8">
    0.0000    0.0100    0.0200    0.0300    0.0400    0.0500    0.0600    0.0700
    0.0800    0.0900    0.1000    0.1100    0.1200    0.1300    0.1400    0.1500
    0.1600    0.1700    0.1800    0.1900    0.2000    0.2100    0.2200    0.2300
    0.2400    0.2500    0.2600    0.2700    0.2800    0.2900    0.3000    0.3100
    0.3200    0.3300    0.3400    0.3500    0.3600    0.3700    0.3800    0.3900
    0.4000    0.4100    0.4200    0.4300    0.4400    0.4500    0.4600    0.4700
    0.4800    0.4900    0.5000    0.5100    0.5200    0.5300    0.5400    0.5500
    0.5600    0.5700    0.5800    0.5900    0.6000    0.6100    0.6200    0.6300
    0.6400    0.6500    0.6600    0.6700    0.6800    0.6900    0.7000    0.7100
    0.7200    0.7300    0.7400    0.7500    0.7600    0.7700    0.7800    0.7900
    0.8000    0.8100    0.8200    0.8300    0.8400    0.8500    0.8600    0.8700
    0.8800    0.8900    0.9000    0.9100    0.9200    0.9300    0.9400    0.9500
    0.9600    0.9700    0.9800    0.9900    1.0000    1.0100    1.0200    1.0300
    1.0400    1.0500    1.0600    1.0700    1.0800    1.0900    1.1000    1.1100
    1.1200    1.1300    1.1400    1.1500    1.1600    1.1700    1.1800    1.1900
    1.2000    1.2100    1.2200    1.2300    1.2400    1.2500    1.2600    1.2700
    1.2800    1.2900    1.3000    1.3100    1.3200    1.3300    1.3400    1.3500
    1.3600    1.3700    1.3800    1.3900    1.4000    1.4100    1.4200    1.4300
    1.4400    1.4500    1.4600    1.4700    1.4800    1.4900    1.5000    1.5100
    1.5200    1.5300    1.5400    1.5500    1.5600    1.5700    1.5800    1.5900
    1.6000    1.6100    1.6200    1.6300    1.6400    1.6500    1.6600    1.6700
    1.6800    1.6900    1.7000    1.7100    1.7200    1.7300    1.7400    1.7500
    1.7600    1.7700    1.7800    1.7900    1.8000    1.8100    1.8200    1.8300
    1.8400    1.8500    1.8600    1.8700    1.8800    1.8900    1.9000    1.9100
    1.9200    1.9300    1.9400    1.9500    1.9600    1.9700    1.9800    1.9900
    2.0000    2.0100    2.0200    2.0300    2.0400    2.0500    2.0600    2.0700
    2.0800    2.0900    2.1000    2.1100    2.1200    2.1300    2.1400    2.1500
    2.1600    2.1700    2.1800    2.1900    2.2000    2.2100    2.2200    2.2300
    2.2400    2.2500    2.2600    2.2700    2.2800    2.2900    2.3000    2.3100
    2.3200    2.3300    2.3400    2.3500    2.3600    2.3700    2.3800    2.3900
    2.4000    2.4100    2.4200    2.4300    2.4400    2.4500    2.4600    2.4700
    2.4800    2.4900    2.5000    2.5100    2.5200    2.5300    2.5400    2.5500
    2.5600    2.5700    2.5800    2.5900    2.6000    2.6100    2.6200    2.6300
    2.6400    2.6500    2.6600    2.6700    2.6800    2.6900    2.7000    2.7100
    2.7200    2.7300    2.7400    2.7500    2.7600    2.7700    2.7800    2.7900
    2.8000    2.8100    2.8200    2.8300    2.8400    2.8500    2.8600    2.8700
    2.8800    2.8900    2.9000    2.9100    2.9200    2.9300    2.9400    2.9500
    2.9600    2.9700    2.9800    2.9900    3.0000    3.0100    3.0200    3.0300
    3.0400    3.0500    3.0600    3.0700    3.0800    3.0900    3.1000    3.1100
    3.1200    3.1300    3.1400    3.1500    3.1600    3.1700    3.1800    3.1900
    3.2000    3.2100    3.2200    3.2300    3.2400    3.2500    3.2600    3.2700
    3.2800    3.2900    3.3000    3.3100    3.3200    3.3300    3.3400    3.3500
    3.3600    3.3700    3.3800    3.3900    3.4000    3.4100    3.4200    3.4300
    3.4400    3.4500    3.4600    3.4700    3.4800    3.4900    3.5000    3.5100
    3.5200    3.5300    3.5400    3.5500    3.5600    3.5700    3.5800    3.5900
    3.6000    3.6100    3.6200    3.6300    3.6400    3.6500    3.6600    3.6700
    3.6800    3.6900    3.7000    3.7100    3.7200    3.7300    3.7400    3.7500
    3.7600    3.7700    3.7800    3.7900    3.8000    3.8100    3.8200    3.8300
    3.8400    3.8500    3.8600    3.8700    3.8800    3.8900    3.9000    3.9100
    3.9200    3.9300    3.9400    3.9500    3.9600    3.9700    3.9800    3.9900
    4.0000    4.0100    4.0200    4.0300    4.0400    4.0500    4.0600    4.0700
    4.0800    4.0900    4.1000    4.1100    4.1200    4.1300    4.1400    4.1500
    4.1600    4.1700    4.1800    4.1900    4.2000    4.2100    4.2200    4.2300
    4.2400    4.2500    4.2600    4.2700    4.2800    4.2900    4.3000    4.3100
    4.3200    4.3300    4.3400    4.3500    4.3600    4.3700    4.3800    4.3900
    4.4000    4.4100    4.4200    4.4300    4.4400    4.4500    4.4600    4.4700
    4.4800    4.4900    4.5000    4.5100    4.5200    4.5300    4.5400    4.5500
    4.5600    4.5700    4.5800    4.5900    4.6000    4.6100    4.6200    4.6300
    4.6400    4.6500    4.6600    4.6700    4.6800    4.6900    4.7000    4.7100
    4.7200    4.7300    4.7400    4.7500    4.7600    4.7700    4.7800    4.7900
    4.8000    4.8100    4.8200    4.8300    4.8400    4.8500    4.8600    4.8700
    4.8800    4.8900    4.9000    4.9100    4.9200    4.9300    4.9400    4.9500
    4.9600    4.9700    4.9800    4.9900    5.0000    5.0100    5.0200    5.0300
    5.0400    5.0500    5.0600    5.0700    5.0800    5.0900    5.1000    5.1100
    5.1200    5.1300    5.1400    5.1500    5.1600    5.1700    5.1800    5.1900
    5.2000    5.2100    5.2200    5.2300    5.2400    5.2500    5.2600    5.2700
    5.2800    5.2900    5.3000    5.3100    5.3200    5.3300    5.3400    5.3500
    5.3600    5.3700    5.3800    5.3900    5.4000    5.4100    5.4200    5.4300
    5.4400    5.4500    5.4600    5.4700    5.4800    5.4900    5.5000    5.5100
    5.5200    5.5300    5.5400    5.5500    5.5600    5.5700    5.5800    5.5900
    5.6000    5.6100    5.6200    5.6300    5.6400    5.6500    5.6600    5.6700
    5.6800    5.6900    5.7000    5.7100    5.7200    5.7300    5.7400    5.7500
    5.7600    5.7700    5.7800    5.7900    5.8000    5.8100    5.8200    5.8300
    5.8400    5.8500    5.8600    5.8700    5.8800    5.8900    5.9000    5.9100
    5.9200    5.9300    5.9400    5.9500    5.9600    5.9700    5.9800    5.9900
    6.0000    6.0100
   </PP_R>
   <PP_RAB type="real"  size=" 602" columns="8">
    0.0100    0.0100    0.0100    0.0100    0.0100    0.0100    0.0100    0.0100
    0.0100    0.0100    0.0100    0.0100    0.0100    0.0100    0.0100    0.0100
    0.0100    0.0100    0.0100    0.0100    0.0100    0.0100    0.0100    0.0100
    0.0100    0.0100    0.0100    0.0100    0.0100    0.0100    0.0100    0.0100
    0.0100    0.0100    0.0100    0.0100    0.0100    0.0100    0.0100    0.0100
    0.0100    0.0100    0.0100    0.0100    0.0100    0.0100    0.0100    0.0100
    0.0100    0.0100    0.0100    0.0100    0.0100    0.0100    0.0100    0.0100
    0.0100    0.0100    0.0100    0.0100    0.0100    0.0100    0.0100    0.0100
    0.0100    0.0100    0.0100    0.0100    0.0100    0.0100    0.0100    0.0100
    0.0100    0.0100    0.0100    0.0100    0.0100    0.0100    0.0100    0.0100
    0.0100    0.0100    0.0100    0.0100    0.0100    0.0100    0.0100    0.0100
    0.0100    0.0100    0.0100    0.0100    0.0100    0.0100    0.0100    0.0100
    0.0100    0.0100    0.0100    0.0100    0.0100    0.0100    0.0100    0.0100
    0.0100    0.0100    0.0100    0.0100    0.0100    0.0100    0.0100    0.0100
    0.0100    0.0100    0.0100    0.0100    0.0100    0.0100    0.0100    0.0100
    0.0100    0.0100    0.0100    0.0100    0.0100    0.0100    0.0100    0.0100
    0.0100    0.0100    0.0100    0.0100    0.0100    0.0100    0.0100    0.0100
    0.0100    0.0100    0.0100    0.0100    0.0100    0.0100    0.0100    0.0100
    0.0100    0.0100    0.0100    0.0100    0.0100    0.0100    0.0100    0.0100
    0.0100    0.0100    0.0100    0.0100    0.0100    0.0100    0.0100    0.0100
    0.0100    0.0100    0.0100    0.0100    0.0100    0.0100    0.0100    0.0100
    0.0100    0.0100    0.0100    0.0100    0.0100    0.0100    0.0100    0.0100
    0.0100    0.0100    0.0100    0.0100    0.0100    0.0100    0.0100    0.0100
    0.0100    0.0100    0.0100    0.0100    0.0100    0.0100    0.0100    0.0100
    0.0100    0.0100    0.0100    0.0100    0.0100    0.0100    0.0100    0.0100
    0.0100    0.0100    0.0100    0.0100    0.0100    0.0100    0.0100    0.0100
    0.0100    0.0100    0.0100    0.0100    0.0100    0.0100    0.0100    0.0100
    0.0100    0.0100    0.0100    0.0100    0.0100    0.0100    0.0100    0.0100
    0.0100    0.0100    0.0100    0.0100    0.0100    0.0100    0.0100    0.0100
    0.0100    0.0100    0.0100    0.0100    0.0100    0.0100    0.0100    0.0100
    0.0100    0.0100    0.0100    0.0100    0.0100    0.0100    0.0100    0.0100
    0.0100    0.0100    0.0100    0.0100    0.0100    0.0100    0.0100    0.0100
    0.0100    0.0100    0.0100    0.0100    0.0100    0.0100    0.0100    0.0100
    0.0100    0.0100    0.0100    0.0100    0.0100    0.0100    0.0100    0.0100
    0.0100    0.0100    0.0100    0.0100    0.0100    0.0100    0.0100    0.0100
    0.0100    0.0100    0.0100    0.0100    0.0100    0.0100    0.0100    0.0100
    0.0100    0.0100    0.0100    0.0100    0.0100    0.0100    0.0100    0.0100
    0.0100    0.0100    0.0100    0.0100    0.0100    0.0100    0.0100    0.0100
    0.0100    0.0100    0.0100    0.0100    0.0100    0.0100    0.0100    0.0100
    0.0100    0.0100    0.0100    0.0100    0.0100    0.0100    0.0100    0.0100
    0.0100    0.0100    0.0100    0.0100    0.0100    0.0100    0.0100    0.0100
    0.0100    0.0100    0.0100    0.0100    0.0100    0.0100    0.0100    0.0100
    0.0100    0.0100    0.0100    0.0100    0.0100    0.0100    0.0100    0.0100
    0.0100    0.0100    0.0100    0.0100    0.0100    0.0100    0.0100    0.0100
    0.0100    0.0100    0.0100    0.0100    0.0100    0.0100    0.0100    0.0100
    0.0100    0.0100    0.0100    0.0100    0.0100    0.0100    0.0100    0.0100
    0.0100    0.0100    0.0100    0.0100    0.0100    0.0100    0.0100    0.0100
    0.0100    0.0100    0.0100    0.0100    0.0100    0.0100    0.0100    0.0100
    0.0100    0.0100    0.0100    0.0100    0.0100    0.0100    0.0100    0.0100
    0.0100    0.0100    0.0100    0.0100    0.0100    0.0100    0.0100    0.0100
    0.0100    0.0100    0.0100    0.0100    0.0100    0.0100    0.0100    0.0100
    0.0100    0.0100    0.0100    0.0100    0.0100    0.0100    0.0100    0.0100
    0.0100    0.0100    0.0100    0.0100    0.0100    0.0100    0.0100    0.0100
    0.0100    0.0100    0.0100    0.0100    0.0100    0.0100    0.0100    0.0100
    0.0100    0.0100    0.0100    0.0100    0.0100    0.0100    0.0100    0.0100
    0.0100    0.0100    0.0100    0.0100    0.0100    0.0100    0.0100    0.0100
    0.0100    0.0100    0.0100    0.0100    0.0100    0.0100    0.0100    0.0100
    0.0100    0.0100    0.0100    0.0100    0.0100    0.0100    0.0100    0.0100
    0.0100    0.0100    0.0100    0.0100    0.0100    0.0100    0.0100    0.0100
    0.0100    0.0100    0.0100    0.0100    0.0100    0.0100    0.0100    0.0100
    0.0100    0.0100    0.0100    0.0100    0.0100    0.0100    0.0100    0.0100
    0.0100    0.0100    0.0100    0.0100    0.0100    0.0100    0.0100    0.0100
    0.0100    0.0100    0.0100    0.0100    0.0100    0.0100    0.0100    0.0100
    0.0100    0.0100    0.0100    0.0100    0.0100    0.0100    0.0100    0.0100
    0.0100    0.0100    0.0100    0.0100    0.0100    0.0100    0.0100    0.0100
    0.0100    0.0100    0.0100    0.0100    0.0100    0.0100    0.0100    0.0100
    0.0100    0.0100    0.0100    0.0100    0.0100    0.0100    0.0100    0.0100
    0.0100    0.0100    0.0100    0.0100    0.0100    0.0100    0.0100    0.0100
    0.0100    0.0100    0.0100    0.0100    0.0100    0.0100    0.0100    0.0100
    0.0100    0.0100    0.0100    0.0100    0.0100    0.0100    0.0100    0.0100
    0.0100    0.0100    0.0100    0.0100    0.0100    0.0100    0.0100    0.0100
    0.0100    0.0100    0.0100    0.0100    0.0100    0.0100    0.0100    0.0100
    0.0100    0.0100    0.0100    0.0100    0.0100    0.0100    0.0100    0.0100
    0.0100    0.0100    0.0100    0.0100    0.0100    0.0100    0.0100    0.0100
    0.0100    0.0100    0.0100    0.0100    0.0100    0.0100    0.0100    0.0100
    0.0100    0.0100
   </PP_RAB>
 </PP_MESH>
  <PP_LOCAL type="real"  size=" 602" columns="4">
   -2.3547978481E+01   -2.3573887004E+01   -2.3819079396E+01   -2.4178678178E+01
   -2.4547805876E+01   -2.4813937786E+01   -2.4921124755E+01   -2.4882246365E+01
   -2.4747436843E+01   -2.4569090810E+01   -2.4384405973E+01   -2.4213443259E+01
   -2.4063864261E+01   -2.3936306329E+01   -2.3828220759E+01   -2.3736067577E+01
   -2.3656373813E+01   -2.3586146081E+01   -2.3522963788E+01   -2.3464936101E+01
   -2.3410613787E+01   -2.3358897171E+01   -2.3308955397E+01   -2.3260161280E+01
   -2.3212040785E+01   -2.3164234824E+01   -2.3116470460E+01   -2.3068539696E+01
   -2.3020283523E+01   -2.2971580096E+01   -2.2922335862E+01   -2.2872478870E+01
   -2.2821953665E+01   -2.2770717405E+01   -2.2718736775E+01   -2.2665985617E+01
   -2.2612442987E+01   -2.2558091610E+01   -2.2502916567E+01   -2.2446904221E+01
   -2.2390041282E+01   -2.2332314005E+01   -2.2273707494E+01   -2.2214205088E+01
   -2.2153787836E+01   -2.2092434041E+01   -2.2030118888E+01   -2.1966814158E+01
   -2.1902488002E+01   -2.1837104833E+01   -2.1770625316E+01   -2.1703006493E+01
   -2.1634201915E+01   -2.1564162051E+01   -2.1492834733E+01   -2.1420165701E+01
   -2.1346099381E+01   -2.1270579682E+01   -2.1193550943E+01   -2.1114959058E+01
   -2.1034752470E+01   -2.0952883553E+01   -2.0869309706E+01   -2.0783994521E+01
   -2.0696909309E+01   -2.0608033873E+01   -2.0517357532E+01   -2.0424880500E+01
   -2.0330614096E+01   -2.0234581356E+01   -2.0136817276E+01   -2.0037369248E+01
   -1.9936296329E+01   -1.9833668903E+01   -1.9729567931E+01   -1.9624083947E+01
   -1.9517315882E+01   -1.9409369816E+01   -1.9300357288E+01   -1.9190393824E+01
   -1.9079597345E+01   -1.8968086612E+01   -1.8855979745E+01   -1.8743392849E+01
   -1.8630438799E+01   -1.8517226196E+01   -1.8403858515E+01   -1.8290433446E+01
   -1.8177042435E+01   -1.8063770397E+01   -1.7950695604E+01   -1.7837889703E+01
   -1.7725417856E+01   -1.7613338963E+01   -1.7501706015E+01   -1.7390566327E+01
   -1.7279961776E+01   -1.7169929360E+01   -1.7060501427E+01   -1.6951705967E+01
   -1.6843566866E+01   -1.6736104140E+01   -1.6629334227E+01   -1.6523269602E+01
   -1.6417919418E+01   -1.6313289400E+01   -1.6209381892E+01   -1.6106196156E+01
   -1.6003727628E+01   -1.5901968590E+01   -1.5800908142E+01   -1.5700532415E+01
   -1.5600824338E+01   -1.5501763653E+01   -1.5403327667E+01   -1.5305491442E+01
   -1.5208227636E+01   -1.5111507082E+01   -1.5015299528E+01   -1.4919573812E+01
   -1.4824298265E+01   -1.4729441699E+01   -1.4634973415E+01   -1.4540864108E+01
   -1.4447086830E+01   -1.4353616447E+01   -1.4260430802E+01   -1.4167512119E+01
   -1.4074845119E+01   -1.3982418964E+01   -1.3890228282E+01   -1.3798270133E+01
   -1.3706547472E+01   -1.3615068050E+01   -1.3523841584E+01   -1.3432884755E+01
   -1.3342216445E+01   -1.3251858343E+01   -1.3161837140E+01   -1.3072180024E+01
   -1.2982917697E+01   -1.2894082016E+01   -1.2805705774E+01   -1.2717823078E+01
   -1.2630467872E+01   -1.2543674293E+01   -1.2457475680E+01   -1.2371905238E+01
   -1.2286993883E+01   -1.2202773108E+01   -1.2119270530E+01   -1.2036514176E+01
   -1.1954528738E+01   -1.1873337735E+01   -1.1792962742E+01   -1.1713422402E+01
   -1.1634735027E+01   -1.1556914383E+01   -1.1479975433E+01   -1.1403927387E+01
   -1.1328781576E+01   -1.1254543386E+01   -1.1181220162E+01   -1.1108814128E+01
   -1.1037328824E+01   -1.0966763481E+01   -1.0897118205E+01   -1.0828389385E+01
   -1.0760574058E+01   -1.0693665904E+01   -1.0627659227E+01   -1.0562545108E+01
   -1.0498315415E+01   -1.0434958717E+01   -1.0372464698E+01   -1.0310819473E+01
   -1.0250010763E+01   -1.0190022246E+01   -1.0130839799E+01   -1.0072445030E+01
   -1.0014821029E+01   -9.9579497521E+00   -9.9018128960E+00   -9.8463935476E+00
   -9.7916744658E+00   -9.7376393477E+00   -9.6842722343E+00   -9.6315573454E+00
   -9.5794800448E+00   -9.5280250127E+00   -9.4771788675E+00   -9.4269269873E+00
   -9.3772568035E+00   -9.3281549196E+00   -9.2796090704E+00   -9.2316072677E+00
   -9.1841374574E+00   -9.1371890257E+00   -9.0907501843E+00   -9.0448112701E+00
   -8.9993616077E+00   -8.9543915793E+00   -8.9098919030E+00   -8.8658529423E+00
   -8.8222665784E+00   -8.7791236588E+00   -8.7364164586E+00   -8.6941369785E+00
   -8.6522773265E+00   -8.6108306451E+00   -8.5697892002E+00   -8.5291466141E+00
   -8.4888961092E+00   -8.4490310471E+00   -8.4095456201E+00   -8.3704333191E+00
   -8.3316886335E+00   -8.2933058645E+00   -8.2552792159E+00   -8.2176036856E+00
   -8.1802737519E+00   -8.1432844064E+00   -8.1066307968E+00   -8.0703076853E+00
   -8.0343106110E+00   -7.9986347705E+00   -7.9632754438E+00   -7.9282282730E+00
   -7.8934885626E+00   -7.8590520368E+00   -7.8249145335E+00   -7.7910713380E+00
   -7.7575189833E+00   -7.7242536078E+00   -7.6912711446E+00   -7.6585685049E+00
   -7.6261421927E+00   -7.5939887547E+00   -7.5621048885E+00   -7.5304870685E+00
   -7.4991320611E+00   -7.4680368540E+00   -7.4371981965E+00   -7.4066130694E+00
   -7.3762784939E+00   -7.3461913152E+00   -7.3163486810E+00   -7.2867477186E+00
   -7.2573854043E+00   -7.2282590028E+00   -7.1993657261E+00   -7.1707026529E+00
   -7.1422671487E+00   -7.1140565124E+00   -7.0860679007E+00   -7.0582987926E+00
   -7.0307465919E+00   -7.0034085152E+00   -6.9762821976E+00   -6.9493651965E+00
   -6.9226548800E+00   -6.8961489803E+00   -6.8698452057E+00   -6.8437411039E+00
   -6.8178344552E+00   -6.7921230860E+00   -6.7666046728E+00   -6.7412770402E+00
   -6.7161381503E+00   -6.6911858223E+00   -6.6664179071E+00   -6.6418324948E+00
   -6.6174275464E+00   -6.5932009247E+00   -6.5691508439E+00   -6.5452753782E+00
   -6.5215724723E+00   -6.4980403786E+00   -6.4746772898E+00   -6.4514812880E+00
   -6.4284505955E+00   -6.4055835380E+00   -6.3828783385E+00   -6.3603331769E+00
   -6.3379465069E+00   -6.3157166642E+00   -6.2936418681E+00   -6.2717206050E+00
   -6.2499513175E+00   -6.2283323631E+00   -6.2068621540E+00   -6.1855392660E+00
   -6.1643621881E+00   -6.1433292851E+00   -6.1224392241E+00   -6.1016905755E+00
   -6.0810818410E+00   -6.0606115876E+00   -6.0402785210E+00   -6.0200812686E+00
   -6.0000183453E+00   -5.9800885288E+00   -5.9602905275E+00   -5.9406229952E+00
   -5.9210845865E+00   -5.9016741447E+00   -5.8823904219E+00   -5.8632320889E+00
   -5.8441979724E+00   -5.8252869270E+00   -5.8064977631E+00   -5.7878291764E+00
   -5.7692801420E+00   -5.7508495284E+00   -5.7325361699E+00   -5.7143388885E+00
   -5.6962566898E+00   -5.6782884918E+00   -5.6604331547E+00   -5.6426896186E+00
   -5.6250569114E+00   -5.6075340011E+00   -5.5901197787E+00   -5.5728132843E+00
   -5.5556135705E+00   -5.5385196533E+00   -5.5215304583E+00   -5.5046451082E+00
   -5.4878626843E+00   -5.4711822476E+00   -5.4546027620E+00   -5.4381234170E+00
   -5.4217433254E+00   -5.4054615920E+00   -5.3892772213E+00   -5.3731894544E+00
   -5.3571974401E+00   -5.3413003242E+00   -5.3254971544E+00   -5.3097872102E+00
   -5.2941696792E+00   -5.2786437464E+00   -5.2632085053E+00   -5.2478632605E+00
   -5.2326072419E+00   -5.2174396722E+00   -5.2023596923E+00   -5.1873666205E+00
   -5.1724597315E+00   -5.1576382840E+00   -5.1429014692E+00   -5.1282486071E+00
   -5.1136790202E+00   -5.0991920014E+00   -5.0847867951E+00   -5.0704627119E+00
   -5.0562191243E+00   -5.0420553579E+00   -5.0279707134E+00   -5.0139644816E+00
   -5.0000360870E+00   -4.9861848861E+00   -4.9724102359E+00   -4.9587114074E+00
   -4.9450878691E+00   -4.9315390101E+00   -4.9180642169E+00   -4.9046628205E+00
   -4.8913342471E+00   -4.8780779451E+00   -4.8648933296E+00   -4.8517797951E+00
   -4.8387367171E+00   -4.8257636036E+00   -4.8128598966E+00   -4.8000250383E+00
   -4.7872584051E+00   -4.7745595060E+00   -4.7619278277E+00   -4.7493628383E+00
   -4.7368639822E+00   -4.7244306983E+00   -4.7120625386E+00   -4.6997589958E+00
   -4.6875195627E+00   -4.6753436736E+00   -4.6632308735E+00   -4.6511807014E+00
   -4.6391926738E+00   -4.6272662979E+00   -4.6154010322E+00   -4.6035964846E+00
   -4.5918521937E+00   -4.5801676983E+00   -4.5685425026E+00   -4.5569761462E+00
   -4.5454682324E+00   -4.5340183215E+00   -4.5226259739E+00   -4.5112906951E+00
   -4.5000120933E+00   -4.4887897703E+00   -4.4776233070E+00   -4.4665122839E+00
   -4.4554562136E+00   -4.4444547588E+00   -4.4335075241E+00   -4.4226141098E+00
   -4.4117741083E+00   -4.4009870660E+00   -4.3902526650E+00   -4.3795705244E+00
   -4.3689402628E+00   -4.3583614839E+00   -4.3478337704E+00   -4.3373568138E+00
   -4.3269302507E+00   -4.3165537177E+00   -4.3062268334E+00   -4.2959492058E+00
   -4.2857205392E+00   -4.2755404872E+00   -4.2654087032E+00   -4.2553248241E+00
   -4.2452884734E+00   -4.2352993713E+00   -4.2253571874E+00   -4.2154615914E+00
   -4.2056122415E+00   -4.1958087676E+00   -4.1860509084E+00   -4.1763383491E+00
   -4.1666707748E+00   -4.1570478679E+00   -4.1474692560E+00   -4.1379346994E+00
   -4.1284438976E+00   -4.1189965506E+00   -4.1095923581E+00   -4.1002309674E+00
   -4.0909121323E+00   -4.0816355766E+00   -4.0724010139E+00   -4.0632081582E+00
   -4.0540566870E+00   -4.0449463322E+00   -4.0358768465E+00   -4.0268479570E+00
   -4.0178593908E+00   -4.0089108590E+00   -4.0000020641E+00   -3.9911327897E+00
   -3.9823027757E+00   -3.9735117618E+00   -3.9647594880E+00   -3.9560456432E+00
   -3.9473700214E+00   -3.9387323817E+00   -3.9301324761E+00   -3.9215700565E+00
   -3.9130448503E+00   -3.9045566061E+00   -3.8961051203E+00   -3.8876901563E+00
   -3.8793114777E+00   -3.8709688479E+00   -3.8626619802E+00   -3.8543906936E+00
   -3.8461547673E+00   -3.8379539760E+00   -3.8297880942E+00   -3.8216568781E+00
   -3.8135600878E+00   -3.8054975445E+00   -3.7974690333E+00   -3.7894743392E+00
   -3.7815132473E+00   -3.7735855062E+00   -3.7656909273E+00   -3.7578293225E+00
   -3.7500004869E+00   -3.7422042155E+00   -3.7344403035E+00   -3.7267084963E+00
   -3.7190086461E+00   -3.7113405591E+00   -3.7037040399E+00   -3.6960988933E+00
   -3.6885249143E+00   -3.6809818776E+00   -3.6734696379E+00   -3.6659880089E+00
   -3.6585368045E+00   -3.6511158382E+00   -3.6437249073E+00   -3.6363638118E+00
   -3.6290324071E+00   -3.6217305157E+00   -3.6144579599E+00   -3.6072145622E+00
   -3.6000001251E+00   -3.5928144654E+00   -3.5856574426E+00   -3.5785288873E+00
   -3.5714286302E+00   -3.5643565020E+00   -3.5573123137E+00   -3.5502958910E+00
   -3.5433071004E+00   -3.5363457803E+00   -3.5294117693E+00   -3.5225049061E+00
   -3.5156250131E+00   -3.5087719173E+00   -3.5019454950E+00   -3.4951455922E+00
   -3.4883720552E+00   -3.4816247299E+00   -3.4749034532E+00   -3.4682080462E+00
   -3.4615383979E+00   -3.4548943615E+00   -3.4482757903E+00   -3.4416825376E+00
   -3.4351144566E+00   -3.4285713575E+00   -3.4220531431E+00   -3.4155596738E+00
   -3.4090908097E+00   -3.4026464109E+00   -3.3962263376E+00   -3.3898304195E+00
   -3.3834585389E+00   -3.3771105750E+00   -3.3707863945E+00   -3.3644858642E+00
   -3.3582088506E+00   -3.3519552058E+00   -3.3457247855E+00   -3.3395174900E+00
   -3.3333331921E+00   -3.3271717649E+00   -3.3210330810E+00   -3.3149170134E+00
   -3.3088233983E+00   -3.3027521463E+00   -3.2967031403E+00   -3.2906762590E+00
   -3.2846713812E+00   -3.2786883858E+00   -3.2727271361E+00   -3.2667875035E+00
   -3.2608693973E+00   -3.2549727019E+00   -3.2490973018E+00   -3.2432430813E+00
   -3.2374099249E+00   -3.2315976863E+00   -3.2258062764E+00   -3.2200355933E+00
   -3.2142855270E+00   -3.2085559673E+00   -3.2028468039E+00   -3.1971579222E+00
   -3.1914891835E+00   -3.1858405161E+00   -3.1802118151E+00   -3.1746029754E+00
   -3.1690138920E+00   -3.1634444598E+00   -3.1578945602E+00   -3.1523640795E+00
   -3.1468529413E+00   -3.1413610456E+00   -3.1358882922E+00   -3.1304345810E+00
   -3.1249998117E+00   -3.1195838651E+00   -3.1141866451E+00   -3.1088080735E+00
   -3.1034480551E+00   -3.0981064941E+00   -3.0927832952E+00   -3.0874783629E+00
   -3.0821915801E+00   -3.0769228614E+00   -3.0716721298E+00   -3.0664392943E+00
   -3.0612242639E+00   -3.0560269475E+00   -3.0508472541E+00   -3.0456850716E+00
   -3.0405403186E+00   -3.0354129223E+00   -3.0303027957E+00   -3.0252098522E+00
   -3.0201340048E+00   -3.0150751668E+00   -3.0100332337E+00   -3.0050081221E+00
   -2.9999997655E+00   -2.9950080813E+00
  </PP_LOCAL>
 <PP_NONLOCAL>
   <PP_BETA.1
       type="real"
       size=" 602"
       columns="4"
       index="1"
       angular_momentum="0"
       cutoff_radius_index=" 260"
       cutoff_radius="    2.5900000000E+00" >
    0.0000000000E+00   -2.1815798086E-02   -4.3639951224E-02   -6.5480735934E-02
   -8.7346271956E-02   -1.0924444460E-01   -1.3118282798E-01   -1.5316860937E-01
   -1.7520851510E-01   -1.9730873810E-01   -2.1947486747E-01   -2.4171182039E-01
   -2.6402377645E-01   -2.8641411491E-01   -3.0888535486E-01   -3.3143909875E-01
   -3.5407597940E-01   -3.7679561064E-01   -3.9959654199E-01   -4.2247621731E-01
   -4.4543093788E-01   -4.6845582971E-01   -4.9154481567E-01   -5.1469059215E-01
   -5.3788461072E-01   -5.6111706451E-01   -5.8437687993E-01   -6.0765171314E-01
   -6.3092795195E-01   -6.5419072274E-01   -6.7742390261E-01   -7.0061013677E-01
   -7.2373086102E-01   -7.4676632956E-01   -7.6969564757E-01   -7.9249680920E-01
   -8.1514673998E-01   -8.3762134492E-01   -8.5989556007E-01   -8.8194340935E-01
   -9.0373806656E-01   -9.2525191991E-01   -9.4645664169E-01   -9.6732326157E-01
   -9.8782224346E-01   -1.0079235658E+00   -1.0275968047E+00   -1.0468112191E+00
   -1.0655358422E+00   -1.0837395717E+00   -1.1013912619E+00   -1.1184598133E+00
   -1.1349142836E+00   -1.1507239716E+00   -1.1658585124E+00   -1.1802879992E+00
   -1.1939830420E+00   -1.2069149170E+00   -1.2190556048E+00   -1.2303779526E+00
   -1.2408557023E+00   -1.2504636448E+00   -1.2591776735E+00   -1.2669748713E+00
   -1.2738336422E+00   -1.2797337442E+00   -1.2846563756E+00   -1.2885843032E+00
   -1.2915018810E+00   -1.2933951325E+00   -1.2942518125E+00   -1.2940615054E+00
   -1.2928156346E+00   -1.2905075288E+00   -1.2871324665E+00   -1.2826877133E+00
   -1.2771725555E+00   -1.2705883481E+00   -1.2629385094E+00   -1.2542285467E+00
   -1.2444660665E+00   -1.2336607774E+00   -1.2218244877E+00   -1.2089710958E+00
   -1.1951165751E+00   -1.1802789512E+00   -1.1644782745E+00   -1.1477365851E+00
   -1.1300778725E+00   -1.1115280284E+00   -1.0921147944E+00   -1.0718677034E+00