<UPF version="2.0.1">
  <PP_INFO>

 This pseudopotential file has been produced using the code
 ONCVPSP  (Optimized Norm-Conservinng Vanderbilt PSeudopotential)
 scalar-relativistic version 2.1.1, 03/26/2014 by D. R. Hamann
 The code is available through a link at URL www.mat-simresearch.com.
 Documentation with the package provides a full discription of the
 input data below.


 While it is not required under the terms of the GNU GPL, it is
 suggested that you cite D. R. Hamann, Phys. Rev. B 88, 085117 (2013)
 in any publication using these pseudopotentials.


 Copyright 2015 The Regents of the University of California
 
 This work is licensed under the Creative Commons Attribution-ShareAlike 
 4.0 International License. To view a copy of this license, visit 
 http://creativecommons.org/licenses/by-sa/4.0/ or send a letter to 
 Creative Commons, PO Box 1866, Mountain View, CA 94042, USA.
 
 This pseudopotential is part of the Schlipf-Gygi norm-conserving 
 pseudopotential library. Its construction parameters were tuned to 
 reproduce materials of a training set with very high accuracy and 
 should be suitable as a general purpose pseudopotential to treat a 
 variety of different compounds. For details of the construction and 
 testing of the pseudopotential please refer to:
 
 [insert reference to paper here]
 
 We kindly ask that you include this reference in all publications 
 associated to this pseudopotential.


    <PP_INPUTFILE>
# ATOM AND REFERENCE CONFIGURATION
# atsym  z    nc    nv    iexc   psfile
  Hf 72.00     9     5     4      upf
#
#   n    l    f        energy (Ha)
    1    0    2.00
    2    0    2.00
    2    1    6.00
    3    0    2.00
    3    1    6.00
    3    2   10.00
    4    0    2.00
    4    1    6.00
    4    2   10.00
    4    3   14.00
    5    0    2.00
    5    1    6.00
    6    0    2.00
    5    2    2.00
#
# PSEUDOPOTENTIAL AND OPTIMIZATION
# lmax
    3
#
#   l,   rc,     ep,   ncon, nbas, qcut
    0   1.91063  -2.46280    5    8   8.71531
    1   2.12716  -1.30732    5    8   7.88813
    2   2.05238  -0.09882    5    8   7.52245
    3   3.00632  -0.61866    5    8   7.32892
#
# LOCAL POTENTIAL
# lloc, lpopt,  rc(5),   dvloc0
    4    5   1.71613      0.00000
#
# VANDERBILT-KLEINMAN-BYLANDER PROJECTORs
# l, nproj, debl
    0    2   2.27507
    1    2   1.25601
    2    2   1.01400
    3    2   1.39666
#
# MODEL CORE CHARGE
# icmod, fcfact
    0   0.00000
#
# LOG DERIVATIVE ANALYSIS
# epsh1, epsh2, depsh
   -5.00    3.00    0.02
#
# OUTPUT GRID
# rlmax, drl
    6.00    0.01
#
# TEST CONFIGURATIONS
# ncnf
    0
# nvcnf
#   n    l    f
    </PP_INPUTFILE>
  </PP_INFO>
  <!--                               -->
  <!-- END OF HUMAN READABLE SECTION -->
  <!--                               -->
    <PP_HEADER
       generated="Generated using ONCVPSP code by D. R. Hamann"
       author="Martin Schlipf and Francois Gygi"
       date="150105"
       comment=""
       element="Hf"
       pseudo_type="NC"
       relativistic="scalar"
       is_ultrasoft="F"
       is_paw="F"
       is_coulomb="F"
       has_so="F"
       has_wfc="F"
       has_gipaw="F"
       core_correction="F"
       functional="PBE"
       z_valence="   26.00"
       total_psenergy="  -2.23451029165E+02"
       rho_cutoff="   6.01000000000E+00"
       l_max="3"
       l_local="-1"
       mesh_size="   602"
       number_of_wfc="0"
       number_of_proj="8"/>
 <PP_MESH>
   <PP_R type="real"  size=" 602" columns="8">
    0.0000    0.0100    0.0200    0.0300    0.0400    0.0500    0.0600    0.0700
    0.0800    0.0900    0.1000    0.1100    0.1200    0.1300    0.1400    0.1500
    0.1600    0.1700    0.1800    0.1900    0.2000    0.2100    0.2200    0.2300
    0.2400    0.2500    0.2600    0.2700    0.2800    0.2900    0.3000    0.3100
    0.3200    0.3300    0.3400    0.3500    0.3600    0.3700    0.3800    0.3900
    0.4000    0.4100    0.4200    0.4300    0.4400    0.4500    0.4600    0.4700
    0.4800    0.4900    0.5000    0.5100    0.5200    0.5300    0.5400    0.5500
    0.5600    0.5700    0.5800    0.5900    0.6000    0.6100    0.6200    0.6300
    0.6400    0.6500    0.6600    0.6700    0.6800    0.6900    0.7000    0.7100
    0.7200    0.7300    0.7400    0.7500    0.7600    0.7700    0.7800    0.7900
    0.8000    0.8100    0.8200    0.8300    0.8400    0.8500    0.8600    0.8700
    0.8800    0.8900    0.9000    0.9100    0.9200    0.9300    0.9400    0.9500
    0.9600    0.9700    0.9800    0.9900    1.0000    1.0100    1.0200    1.0300
    1.0400    1.0500    1.0600    1.0700    1.0800    1.0900    1.1000    1.1100
    1.1200    1.1300    1.1400    1.1500    1.1600    1.1700    1.1800    1.1900
    1.2000    1.2100    1.2200    1.2300    1.2400    1.2500    1.2600    1.2700
    1.2800    1.2900    1.3000    1.3100    1.3200    1.3300    1.3400    1.3500
    1.3600    1.3700    1.3800    1.3900    1.4000    1.4100    1.4200    1.4300
    1.4400    1.4500    1.4600    1.4700    1.4800    1.4900    1.5000    1.5100
    1.5200    1.5300    1.5400    1.5500    1.5600    1.5700    1.5800    1.5900
    1.6000    1.6100    1.6200    1.6300    1.6400    1.6500    1.6600    1.6700
    1.6800    1.6900    1.7000    1.7100    1.7200    1.7300    1.7400    1.7500
    1.7600    1.7700    1.7800    1.7900    1.8000    1.8100    1.8200    1.8300
    1.8400    1.8500    1.8600    1.8700    1.8800    1.8900    1.9000    1.9100
    1.9200    1.9300    1.9400    1.9500    1.9600    1.9700    1.9800    1.9900
    2.0000    2.0100    2.0200    2.0300    2.0400    2.0500    2.0600    2.0700
    2.0800    2.0900    2.1000    2.1100    2.1200    2.1300    2.1400    2.1500
    2.1600    2.1700    2.1800    2.1900    2.2000    2.2100    2.2200    2.2300
    2.2400    2.2500    2.2600    2.2700    2.2800    2.2900    2.3000    2.3100
    2.3200    2.3300    2.3400    2.3500    2.3600    2.3700    2.3800    2.3900
    2.4000    2.4100    2.4200    2.4300    2.4400    2.4500    2.4600    2.4700
    2.4800    2.4900    2.5000    2.5100    2.5200    2.5300    2.5400    2.5500
    2.5600    2.5700    2.5800    2.5900    2.6000    2.6100    2.6200    2.6300
    2.6400    2.6500    2.6600    2.6700    2.6800    2.6900    2.7000    2.7100
    2.7200    2.7300    2.7400    2.7500    2.7600    2.7700    2.7800    2.7900
    2.8000    2.8100    2.8200    2.8300    2.8400    2.8500    2.8600    2.8700
    2.8800    2.8900    2.9000    2.9100    2.9200    2.9300    2.9400    2.9500
    2.9600    2.9700    2.9800    2.9900    3.0000    3.0100    3.0200    3.0300
    3.0400    3.0500    3.0600    3.0700    3.0800    3.0900    3.1000    3.1100
    3.1200    3.1300    3.1400    3.1500    3.1600    3.1700    3.1800    3.1900
    3.2000    3.2100    3.2200    3.2300    3.2400    3.2500    3.2600    3.2700
    3.2800    3.2900    3.3000    3.3100    3.3200    3.3300    3.3400    3.3500
    3.3600    3.3700    3.3800    3.3900    3.4000    3.4100    3.4200    3.4300
    3.4400    3.4500    3.4600    3.4700    3.4800    3.4900    3.5000    3.5100
    3.5200    3.5300    3.5400    3.5500    3.5600    3.5700    3.5800    3.5900
    3.6000    3.6100    3.6200    3.6300    3.6400    3.6500    3.6600    3.6700
    3.6800    3.6900    3.7000    3.7100    3.7200    3.7300    3.7400    3.7500
    3.7600    3.7700    3.7800    3.7900    3.8000    3.8100    3.8200    3.8300
    3.8400    3.8500    3.8600    3.8700    3.8800    3.8900    3.9000    3.9100
    3.9200    3.9300    3.9400    3.9500    3.9600    3.9700    3.9800    3.9900
    4.0000    4.0100    4.0200    4.0300    4.0400    4.0500    4.0600    4.0700
    4.0800    4.0900    4.1000    4.1100    4.1200    4.1300    4.1400    4.1500
    4.1600    4.1700    4.1800    4.1900    4.2000    4.2100    4.2200    4.2300
    4.2400    4.2500    4.2600    4.2700    4.2800    4.2900    4.3000    4.3100
    4.3200    4.3300    4.3400    4.3500    4.3600    4.3700    4.3800    4.3900
    4.4000    4.4100    4.4200    4.4300    4.4400    4.4500    4.4600    4.4700
    4.4800    4.4900    4.5000    4.5100    4.5200    4.5300    4.5400    4.5500
    4.5600    4.5700    4.5800    4.5900    4.6000    4.6100    4.6200    4.6300
    4.6400    4.6500    4.6600    4.6700    4.6800    4.6900    4.7000    4.7100
    4.7200    4.7300    4.7400    4.7500    4.7600    4.7700    4.7800    4.7900
    4.8000    4.8100    4.8200    4.8300    4.8400    4.8500    4.8600    4.8700
    4.8800    4.8900    4.9000    4.9100    4.9200    4.9300    4.9400    4.9500
    4.9600    4.9700    4.9800    4.9900    5.0000    5.0100    5.0200    5.0300
    5.0400    5.0500    5.0600    5.0700    5.0800    5.0900    5.1000    5.1100
    5.1200    5.1300    5.1400    5.1500    5.1600    5.1700    5.1800    5.1900
    5.2000    5.2100    5.2200    5.2300    5.2400    5.2500    5.2600    5.2700
    5.2800    5.2900    5.3000    5.3100    5.3200    5.3300    5.3400    5.3500
    5.3600    5.3700    5.3800    5.3900    5.4000    5.4100    5.4200    5.4300
    5.4400    5.4500    5.4600    5.4700    5.4800    5.4900    5.5000    5.5100
    5.5200    5.5300    5.5400    5.5500    5.5600    5.5700    5.5800    5.5900
    5.6000    5.6100    5.6200    5.6300    5.6400    5.6500    5.6600    5.6700
    5.6800    5.6900    5.7000    5.7100    5.7200    5.7300    5.7400    5.7500
    5.7600    5.7700    5.7800    5.7900    5.8000    5.8100    5.8200    5.8300
    5.8400    5.8500    5.8600    5.8700    5.8800    5.8900    5.9000    5.9100
    5.9200    5.9300    5.9400    5.9500    5.9600    5.9700    5.9800    5.9900
    6.0000    6.0100
   </PP_R>
   <PP_RAB type="real"  size=" 602" columns="8">
    0.0100    0.0100    0.0100    0.0100    0.0100    0.0100    0.0100    0.0100
    0.0100    0.0100    0.0100    0.0100    0.0100    0.0100    0.0100    0.0100
    0.0100    0.0100    0.0100    0.0100    0.0100    0.0100    0.0100    0.0100
    0.0100    0.0100    0.0100    0.0100    0.0100    0.0100    0.0100    0.0100
    0.0100    0.0100    0.0100    0.0100    0.0100    0.0100    0.0100    0.0100
    0.0100    0.0100    0.0100    0.0100    0.0100    0.0100    0.0100    0.0100
    0.0100    0.0100    0.0100    0.0100    0.0100    0.0100    0.0100    0.0100
    0.0100    0.0100    0.0100    0.0100    0.0100    0.0100    0.0100    0.0100
    0.0100    0.0100    0.0100    0.0100    0.0100    0.0100    0.0100    0.0100
    0.0100    0.0100    0.0100    0.0100    0.0100    0.0100    0.0100    0.0100
    0.0100    0.0100    0.0100    0.0100    0.0100    0.0100    0.0100    0.0100
    0.0100    0.0100    0.0100    0.0100    0.0100    0.0100    0.0100    0.0100
    0.0100    0.0100    0.0100    0.0100    0.0100    0.0100    0.0100    0.0100
    0.0100    0.0100    0.0100    0.0100    0.0100    0.0100    0.0100    0.0100
    0.0100    0.0100    0.0100    0.0100    0.0100    0.0100    0.0100    0.0100
    0.0100    0.0100    0.0100    0.0100    0.0100    0.0100    0.0100    0.0100
    0.0100    0.0100    0.0100    0.0100    0.0100    0.0100    0.0100    0.0100
    0.0100    0.0100    0.0100    0.0100    0.0100    0.0100    0.0100    0.0100
    0.0100    0.0100    0.0100    0.0100    0.0100    0.0100    0.0100    0.0100
    0.0100    0.0100    0.0100    0.0100    0.0100    0.0100    0.0100    0.0100
    0.0100    0.0100    0.0100    0.0100    0.0100    0.0100    0.0100    0.0100
    0.0100    0.0100    0.0100    0.0100    0.0100    0.0100    0.0100    0.0100
    0.0100    0.0100    0.0100    0.0100    0.0100    0.0100    0.0100    0.0100
    0.0100    0.0100    0.0100    0.0100    0.0100    0.0100    0.0100    0.0100
    0.0100    0.0100    0.0100    0.0100    0.0100    0.0100    0.0100    0.0100
    0.0100    0.0100    0.0100    0.0100    0.0100    0.0100    0.0100    0.0100
    0.0100    0.0100    0.0100    0.0100    0.0100    0.0100    0.0100    0.0100
    0.0100    0.0100    0.0100    0.0100    0.0100    0.0100    0.0100    0.0100
    0.0100    0.0100    0.0100    0.0100    0.0100    0.0100    0.0100    0.0100
    0.0100    0.0100    0.0100    0.0100    0.0100    0.0100    0.0100    0.0100
    0.0100    0.0100    0.0100    0.0100    0.0100    0.0100    0.0100    0.0100
    0.0100    0.0100    0.0100    0.0100    0.0100    0.0100    0.0100    0.0100
    0.0100    0.0100    0.0100    0.0100    0.0100    0.0100    0.0100    0.0100
    0.0100    0.0100    0.0100    0.0100    0.0100    0.0100    0.0100    0.0100
    0.0100    0.0100    0.0100    0.0100    0.0100    0.0100    0.0100    0.0100
    0.0100    0.0100    0.0100    0.0100    0.0100    0.0100    0.0100    0.0100
    0.0100    0.0100    0.0100    0.0100    0.0100    0.0100    0.0100    0.0100
    0.0100    0.0100    0.0100    0.0100    0.0100    0.0100    0.0100    0.0100
    0.0100    0.0100    0.0100    0.0100    0.0100    0.0100    0.0100    0.0100
    0.0100    0.0100    0.0100    0.0100    0.0100    0.0100    0.0100    0.0100
    0.0100    0.0100    0.0100    0.0100    0.0100    0.0100    0.0100    0.0100
    0.0100    0.0100    0.0100    0.0100    0.0100    0.0100    0.0100    0.0100
    0.0100    0.0100    0.0100    0.0100    0.0100    0.0100    0.0100    0.0100
    0.0100    0.0100    0.0100    0.0100    0.0100    0.0100    0.0100    0.0100
    0.0100    0.0100    0.0100    0.0100    0.0100    0.0100    0.0100    0.0100
    0.0100    0.0100    0.0100    0.0100    0.0100    0.0100    0.0100    0.0100
    0.0100    0.0100    0.0100    0.0100    0.0100    0.0100    0.0100    0.0100
    0.0100    0.0100    0.0100    0.0100    0.0100    0.0100    0.0100    0.0100
    0.0100    0.0100    0.0100    0.0100    0.0100    0.0100    0.0100    0.0100
    0.0100    0.0100    0.0100    0.0100    0.0100    0.0100    0.0100    0.0100
    0.0100    0.0100    0.0100    0.0100    0.0100    0.0100    0.0100    0.0100
    0.0100    0.0100    0.0100    0.0100    0.0100    0.0100    0.0100    0.0100
    0.0100    0.0100    0.0100    0.0100    0.0100    0.0100    0.0100    0.0100
    0.0100    0.0100    0.0100    0.0100    0.0100    0.0100    0.0100    0.0100
    0.0100    0.0100    0.0100    0.0100    0.0100    0.0100    0.0100    0.0100
    0.0100    0.0100    0.0100    0.0100    0.0100    0.0100    0.0100    0.0100
    0.0100    0.0100    0.0100    0.0100    0.0100    0.0100    0.0100    0.0100
    0.0100    0.0100    0.0100    0.0100    0.0100    0.0100    0.0100    0.0100
    0.0100    0.0100    0.0100    0.0100    0.0100    0.0100    0.0100    0.0100
    0.0100    0.0100    0.0100    0.0100    0.0100    0.0100    0.0100    0.0100
    0.0100    0.0100    0.0100    0.0100    0.0100    0.0100    0.0100    0.0100
    0.0100    0.0100    0.0100    0.0100    0.0100    0.0100    0.0100    0.0100
    0.0100    0.0100    0.0100    0.0100    0.0100    0.0100    0.0100    0.0100
    0.0100    0.0100    0.0100    0.0100    0.0100    0.0100    0.0100    0.0100
    0.0100    0.0100    0.0100    0.0100    0.0100    0.0100    0.0100    0.0100
    0.0100    0.0100    0.0100    0.0100    0.0100    0.0100    0.0100    0.0100
    0.0100    0.0100    0.0100    0.0100    0.0100    0.0100    0.0100    0.0100
    0.0100    0.0100    0.0100    0.0100    0.0100    0.0100    0.0100    0.0100
    0.0100    0.0100    0.0100    0.0100    0.0100    0.0100    0.0100    0.0100
    0.0100    0.0100    0.0100    0.0100    0.0100    0.0100    0.0100    0.0100
    0.0100    0.0100    0.0100    0.0100    0.0100    0.0100    0.0100    0.0100
    0.0100    0.0100    0.0100    0.0100    0.0100    0.0100    0.0100    0.0100
    0.0100    0.0100    0.0100    0.0100    0.0100    0.0100    0.0100    0.0100
    0.0100    0.0100    0.0100    0.0100    0.0100    0.0100    0.0100    0.0100
    0.0100    0.0100    0.0100    0.0100    0.0100    0.0100    0.0100    0.0100
    0.0100    0.0100
   </PP_RAB>
 </PP_MESH>
  <PP_LOCAL type="real"  size=" 602" columns="4">
   -5.5486110021E+01   -5.5621330954E+01   -5.5644738836E+01   -5.5607939018E+01
   -5.5562536849E+01   -5.5512761199E+01   -5.5461036412E+01   -5.5409186739E+01
   -5.5358630562E+01   -5.5310495377E+01   -5.5265681523E+01   -5.5224886028E+01
   -5.5188601249E+01   -5.5157101307E+01   -5.5130426441E+01   -5.5108372857E+01
   -5.5090493046E+01   -5.5076109505E+01   -5.5064342336E+01   -5.5054149512E+01
   -5.5044376694E+01   -5.5033812685E+01   -5.5021245852E+01   -5.5005517279E+01
   -5.4985566940E+01   -5.4960470097E+01   -5.4929462985E+01   -5.4891956749E+01
   -5.4847541123E+01   -5.4795978896E+01   -5.4737193072E+01   -5.4671248853E+01
   -5.4598332290E+01   -5.4518727338E+01   -5.4432793052E+01   -5.4340941565E+01
   -5.4243618015E+01   -5.4141282800E+01   -5.4034396492E+01   -5.3923407481E+01
   -5.3808742354E+01   -5.3690798799E+01   -5.3569940822E+01   -5.3446496007E+01
   -5.3320754498E+01   -5.3192969376E+01   -5.3063358128E+01   -5.2932104905E+01
   -5.2799363317E+01   -5.2665259561E+01   -5.2529895592E+01   -5.2393352119E+01
   -5.2255691925E+01   -5.2116962547E+01   -5.1977198639E+01   -5.1836424602E+01
   -5.1694656142E+01   -5.1551902319E+01   -5.1408166693E+01   -5.1263448753E+01
   -5.1117744689E+01   -5.0971048374E+01   -5.0823351880E+01   -5.0674646044E+01
   -5.0524920860E+01   -5.0374165743E+01   -5.0222369771E+01   -5.0069521821E+01
   -4.9915610651E+01   -4.9760624935E+01   -4.9604553250E+01   -4.9447384030E+01
   -4.9289105482E+01   -4.9129705456E+01   -4.8969171313E+01   -4.8807489754E+01
   -4.8644646634E+01   -4.8480626764E+01   -4.8315413695E+01   -4.8148989514E+01
   -4.7981334639E+01   -4.7812427628E+01   -4.7642244998E+01   -4.7470761127E+01
   -4.7297948170E+01   -4.7123776044E+01   -4.6948212494E+01   -4.6771223244E+01
   -4.6592772251E+01   -4.6412822060E+01   -4.6231334256E+01   -4.6048270071E+01
   -4.5863591079E+01   -4.5677259993E+01   -4.5489241556E+01   -4.5299503498E+01
   -4.5108017539E+01   -4.4914760394E+01   -4.4719714770E+01   -4.4522869962E+01
   -4.4324223528E+01   -4.4123781534E+01   -4.3921559081E+01   -4.3717580776E+01
   -4.3511880925E+01   -4.3304502874E+01   -4.3095500999E+01   -4.2884938339E+01
   -4.2672886508E+01   -4.2459424902E+01   -4.2244640027E+01   -4.2028625656E+01
   -4.1811480212E+01   -4.1593306351E+01   -4.1374210071E+01   -4.1154300326E+01
   -4.0933687056E+01   -4.0712480922E+01   -4.0490792713E+01   -4.0268732142E+01
   -4.0046407610E+01   -3.9823926367E+01   -3.9601392492E+01   -3.9378907903E+01
   -3.9156572552E+01   -3.8934482567E+01   -3.8712731216E+01   -3.8491409748E+01
   -3.8270605329E+01   -3.8050402190E+01   -3.7830882818E+01   -3.7612125304E+01
   -3.7394205300E+01   -3.7177197047E+01   -3.6961169790E+01   -3.6746191589E+01
   -3.6532328007E+01   -3.6319640574E+01   -3.6108190091E+01   -3.5898033252E+01
   -3.5689224420E+01   -3.5481816626E+01   -3.5275857721E+01   -3.5071395419E+01
   -3.4868472638E+01   -3.4667129999E+01   -3.4467406157E+01   -3.4269333928E+01
   -3.4072947023E+01   -3.3878270998E+01   -3.3685331930E+01   -3.3494149777E+01
   -3.3304741560E+01   -3.3117121363E+01   -3.2931296520E+01   -3.2747274844E+01
   -3.2565053641E+01   -3.2384633915E+01   -3.2206003564E+01   -3.2029154629E+01
   -3.1854067554E+01   -3.1680724945E+01   -3.1509100059E+01   -3.1339166722E+01
   -3.1170891530E+01   -3.1004240695E+01   -3.0839175028E+01   -3.0675654732E+01
   -3.0513636111E+01   -3.0353075253E+01   -3.0193925598E+01   -3.0036141132E+01
   -2.9879674258E+01   -2.9724479241E+01   -2.9570512342E+01   -2.9417730961E+01
   -2.9266099871E+01   -2.9115581843E+01   -2.8966151510E+01   -2.8817777654E+01
   -2.8670445636E+01   -2.8524130560E+01   -2.8378827288E+01   -2.8234520651E+01
   -2.8091210674E+01   -2.7948892809E+01   -2.7807570821E+01   -2.7667249528E+01
   -2.7527935566E+01   -2.7389640683E+01   -2.7252374185E+01   -2.7116151371E+01
   -2.6980984728E+01   -2.6846889593E+01   -2.6713881046E+01   -2.6581973101E+01
   -2.6451180205E+01   -2.6321516154E+01   -2.6192990797E+01   -2.6065618732E+01
   -2.5939403861E+01   -2.5814356204E+01   -2.5690478251E+01   -2.5567770227E+01
   -2.5446235462E+01   -2.5325863020E+01   -2.5206652172E+01   -2.5088587659E+01
   -2.4971656211E+01   -2.4855844642E+01   -2.4741127094E+01   -2.4627487040E+01
   -2.4514895435E+01   -2.4403325140E+01   -2.4292749641E+01   -2.4183136366E+01
   -2.4074455020E+01   -2.3966675443E+01   -2.3859766920E+01   -2.3753697430E+01
   -2.3648443057E+01   -2.3543973463E+01   -2.3440265423E+01   -2.3337301244E+01
   -2.3235053353E+01   -2.3133513109E+01   -2.3032666115E+01   -2.2932495904E+01
   -2.2833001937E+01   -2.2734174293E+01   -2.2636009119E+01   -2.2538508628E+01
   -2.2441668667E+01   -2.2345492779E+01   -2.2249984381E+01   -2.2155144329E+01
   -2.2060977801E+01   -2.1967488627E+01   -2.1874680731E+01   -2.1782557164E+01
   -2.1691121952E+01   -2.1600378597E+01   -2.1510327854E+01   -2.1420972887E+01
   -2.1332315002E+01   -2.1244352857E+01   -2.1157087992E+01   -2.1070519150E+01
   -2.0984643177E+01   -2.0899459635E+01   -2.0814965095E+01   -2.0731154907E+01
   -2.0648026659E+01   -2.0565575376E+01   -2.0483795237E+01   -2.0402682104E+01
   -2.0322230023E+01   -2.0242432325E+01   -2.0163283517E+01   -2.0084777063E+01
   -2.0006905757E+01   -1.9929663144E+01   -1.9853042348E+01   -1.9777035900E+01
   -1.9701636757E+01   -1.9626837810E+01   -1.9552631576E+01   -1.9479010746E+01
   -1.9405968008E+01   -1.9333496069E+01   -1.9261587628E+01   -1.9190235166E+01
   -1.9119431731E+01   -1.9049170175E+01   -1.8979443030E+01   -1.8910243511E+01
   -1.8841564828E+01   -1.8773399808E+01   -1.8705741636E+01   -1.8638584057E+01
   -1.8571920400E+01   -1.8505743647E+01   -1.8440048200E+01   -1.8374827875E+01
   -1.8310075886E+01   -1.8245786795E+01   -1.8181955030E+01   -1.8118574512E+01
   -1.8055639447E+01   -1.7993145055E+01   -1.7931086028E+01   -1.7869456282E+01
   -1.7808251646E+01   -1.7747467318E+01   -1.7687098044E+01   -1.7627139085E+01
   -1.7567586485E+01   -1.7508435820E+01   -1.7449681950E+01   -1.7391321471E+01
   -1.7333350408E+01   -1.7275764496E+01   -1.7218559651E+01   -1.7161732529E+01
   -1.7105279396E+01   -1.7049196223E+01   -1.6993479611E+01   -1.6938126106E+01
   -1.6883132120E+01   -1.6828493865E+01   -1.6774208235E+01   -1.6720271837E+01
   -1.6666681118E+01   -1.6613432688E+01   -1.6560523533E+01   -1.6507950420E+01
   -1.6455709886E+01   -1.6403798918E+01   -1.6352214547E+01   -1.6300953691E+01
   -1.6250012975E+01   -1.6199389701E+01   -1.6149080966E+01   -1.6099083813E+01
   -1.6049395032E+01   -1.6000012121E+01   -1.5950932279E+01   -1.5902152642E+01
   -1.5853670238E+01   -1.5805482652E+01   -1.5757587213E+01   -1.5709981167E+01
   -1.5662661729E+01   -1.5615626584E+01   -1.5568873183E+01   -1.5522398889E+01
   -1.5476201067E+01   -1.5430277504E+01   -1.5384625772E+01   -1.5339243359E+01
   -1.5294127738E+01   -1.5249276808E+01   -1.5204688256E+01   -1.5160359703E+01
   -1.5116288694E+01   -1.5072473248E+01   -1.5028911159E+01   -1.4985600191E+01
   -1.4942537926E+01   -1.4899722510E+01   -1.4857151839E+01   -1.4814823809E+01
   -1.4772736062E+01   -1.4730886821E+01   -1.4689274099E+01   -1.4647895891E+01
   -1.4606749992E+01   -1.4565834585E+01   -1.4525147834E+01   -1.4484687827E+01
   -1.4444452525E+01   -1.4404440039E+01   -1.4364648687E+01   -1.4325076649E+01
   -1.4285722059E+01   -1.4246582930E+01   -1.4207657739E+01   -1.4168944749E+01
   -1.4130442222E+01   -1.4092148221E+01   -1.4054061213E+01   -1.4016179595E+01
   -1.3978501710E+01   -1.3941025811E+01   -1.3903750199E+01   -1.3866673453E+01
   -1.3829793993E+01   -1.3793110239E+01   -1.3756620397E+01   -1.3720323140E+01
   -1.3684216986E+01   -1.3648300430E+01   -1.3612571876E+01   -1.3577029781E+01
   -1.3541672860E+01   -1.3506499675E+01   -1.3471508791E+01   -1.3436698590E+01
   -1.3402067819E+01   -1.3367615158E+01   -1.3333339239E+01   -1.3299238655E+01
   -1.3265311895E+01   -1.3231557839E+01   -1.3197975185E+01   -1.3164562624E+01
   -1.3131318750E+01   -1.3098242266E+01   -1.3065332049E+01   -1.3032586853E+01
   -1.3000005435E+01   -1.2967586393E+01   -1.2935328617E+01   -1.2903230983E+01
   -1.2871292303E+01   -1.2839511391E+01   -1.2807886871E+01   -1.2776417776E+01
   -1.2745102993E+01   -1.2713941392E+01   -1.2682931830E+01   -1.2652072997E+01
   -1.2621364006E+01   -1.2590803777E+01   -1.2560391233E+01   -1.2530125267E+01
   -1.2500004662E+01   -1.2470028561E+01   -1.2440195936E+01   -1.2410505758E+01
   -1.2380956969E+01   -1.2351548413E+01   -1.2322279273E+01   -1.2293148569E+01
   -1.2264155321E+01   -1.2235298526E+01   -1.2206577062E+01   -1.2177990163E+01
   -1.2149536893E+01   -1.2121216318E+01   -1.2093027499E+01   -1.2064969326E+01
   -1.2037041086E+01   -1.2009241888E+01   -1.1981570842E+01   -1.1954027056E+01
   -1.1926609482E+01   -1.1899317395E+01   -1.1872149970E+01   -1.1845106358E+01
   -1.1818185710E+01   -1.1791387060E+01   -1.1764709633E+01   -1.1738152684E+01
   -1.1711715402E+01   -1.1685396979E+01   -1.1659196540E+01   -1.1633113239E+01
   -1.1607146415E+01   -1.1581295296E+01   -1.1555559110E+01   -1.1529937084E+01
   -1.1504428279E+01   -1.1479032125E+01   -1.1453747886E+01   -1.1428574825E+01
   -1.1403512206E+01   -1.1378559193E+01   -1.1353715101E+01   -1.1328979295E+01
   -1.1304351073E+01   -1.1279829735E+01   -1.1255414557E+01   -1.1231104719E+01
   -1.1206899693E+01   -1.1182798809E+01   -1.1158801399E+01   -1.1134906793E+01
   -1.1111114230E+01   -1.1087423081E+01   -1.1063832776E+01   -1.1040342677E+01
   -1.1016952146E+01   -1.0993660545E+01   -1.0970467087E+01   -1.0947371305E+01
   -1.0924372596E+01   -1.0901470352E+01   -1.0878663963E+01   -1.0855952778E+01
   -1.0833336132E+01   -1.0810813553E+01   -1.0788384460E+01   -1.0766048273E+01
   -1.0743804413E+01   -1.0721652218E+01   -1.0699591135E+01   -1.0677620679E+01
   -1.0655740297E+01   -1.0633949436E+01   -1.0612247543E+01   -1.0590633960E+01
   -1.0569108216E+01   -1.0547669826E+01   -1.0526318261E+01   -1.0505052994E+01
   -1.0483873498E+01   -1.0462779127E+01   -1.0441769470E+01   -1.0420844047E+01
   -1.0400002355E+01   -1.0379243891E+01   -1.0358568153E+01   -1.0337974515E+01
   -1.0317462603E+01   -1.0297031952E+01   -1.0276682083E+01   -1.0256412516E+01
   -1.0236222773E+01   -1.0216112258E+01   -1.0196080608E+01   -1.0176127384E+01
   -1.0156252130E+01   -1.0136454389E+01   -1.0116733703E+01   -1.0097089515E+01
   -1.0077521454E+01   -1.0058029115E+01   -1.0038612062E+01   -1.0019269859E+01
   -1.0000002072E+01   -9.9808081860E+00   -9.9616878035E+00   -9.9426405608E+00
   -9.9236660425E+00   -9.9047638334E+00   -9.8859335180E+00   -9.8671746360E+00
   -9.8484867420E+00   -9.8298695214E+00   -9.8113225780E+00   -9.7928455159E+00
   -9.7744379391E+00   -9.7560994473E+00   -9.7378295318E+00   -9.7196279320E+00
   -9.7014942705E+00   -9.6834281697E+00   -9.6654292519E+00   -9.6474971397E+00
   -9.6296313786E+00   -9.6118316350E+00   -9.5940975926E+00   -9.5764288914E+00
   -9.5588251714E+00   -9.5412860727E+00   -9.5238112157E+00   -9.5064001652E+00
   -9.4890526752E+00   -9.4717684024E+00   -9.4545470037E+00   -9.4373881359E+00
   -9.4202914557E+00   -9.4032565492E+00   -9.3862831091E+00   -9.3693708525E+00
   -9.3525194521E+00   -9.3357285808E+00   -9.3189979113E+00   -9.3023271163E+00
   -9.2857157595E+00   -9.2691636361E+00   -9.2526704356E+00   -9.2362358459E+00
   -9.2198595552E+00   -9.2035412514E+00   -9.1872805919E+00   -9.1710772206E+00
   -9.1549309186E+00   -9.1388413883E+00   -9.1228083325E+00   -9.1068314537E+00
   -9.0909104544E+00   -9.0750449847E+00   -9.0592347515E+00   -9.0434795258E+00
   -9.0277790241E+00   -9.0121329628E+00   -8.9965410584E+00   -8.9810030271E+00
   -8.9655185208E+00   -8.9500872886E+00   -8.9347090999E+00   -8.9193836845E+00
   -8.9041107720E+00   -8.8888900919E+00   -8.8737213740E+00   -8.8586042798E+00
   -8.8435385811E+00   -8.8285240541E+00   -8.8135604410E+00   -8.7986474841E+00
   -8.7837849257E+00   -8.7689725079E+00   -8.7542099101E+00   -8.7394969079E+00
   -8.7248332924E+00   -8.7102188177E+00   -8.6956532381E+00   -8.6811363080E+00
   -8.6666677814E+00   -8.6522473629E+00
  </PP_LOCAL>
 <PP_NONLOCAL>
   <PP_BETA.1
       type="real"
       size=" 602"
       columns="4"
       index="1"
       angular_momentum="0"
       cutoff_radius_index=" 304"
       cutoff_radius="    3.0300000000E+00" >
    0.0000000000E+00    6.8570140167E-02    1.3700377730E-01    2.0516476232E-01
    2.7291765307E-01    3.4012806538E-01    4.0666302118E-01    4.7239129285E-01
    5.3718374263E-01    6.0091365640E-01    6.6345707074E-01    7.2469309243E-01
    7.8450420936E-01    8.4277659225E-01    8.9940038600E-01    9.5426998999E-01
    1.0072843267E+00    1.0583470971E+00    1.1073670237E+00    1.1542580781E+00
    1.1989396947E+00    1.2413369687E+00    1.2813808376E+00    1.3190082463E+00
    1.3541622958E+00    1.3867923717E+00    1.4168542581E+00    1.4443102299E+00
    1.4691291275E+00    1.4912864128E+00    1.5107642048E+00    1.5275512966E+00
    1.5416431517E+00    1.5530418813E+00    1.5617562020E+00    1.5678013734E+00
    1.5711991167E+00    1.5719775134E+00    1.5701708856E+00    1.5658196574E+00
    1.5589701982E+00    1.5496746483E+00    1.5379907267E+00    1.5239815231E+00
    1.5077152732E+00    1.4892651190E+00    1.4687088548E+00    1.4461286592E+00
    1.4216108144E+00    1.3952454182E+00    1.3671260828E+00    1.3373496012E+00
    1.3060156545E+00    1.2732264839E+00    1.2390865063E+00    1.2037020670E+00
    1.1671809796E+00    1.1296323048E+00    1.0911658724E+00    1.0518920866E+00
    1.0119213911E+00    9.7136413797E-01    9.3033005433E-01    8.8892800636E-01
    8.4726574955E-01    8.0544937495E-01    7.6358320074E-01    7.2176945865E-01
    6.8010789316E-01    6.3869551762E-01    5.9762640410E-01    5.5699140602E-01
    5.1687796211E-01    4.7736970711E-01    4.3854644461E-01    4.0048390203E-01
    3.6325355984E-01    3.2692249935E-01    2.9155326955E-01    2.5720377323E-01
    2.2392718105E-01    1.9177184335E-01    1.6078122012E-01    1.3099388366E-01