<UPF version="2.0.1">
  <PP_INFO>

 This pseudopotential file has been produced using the code
 ONCVPSP  (Optimized Norm-Conservinng Vanderbilt PSeudopotential)
 scalar-relativistic version 2.1.1, 03/26/2014 by D. R. Hamann
 The code is available through a link at URL www.mat-simresearch.com.
 Documentation with the package provides a full discription of the
 input data below.


 While it is not required under the terms of the GNU GPL, it is
 suggested that you cite D. R. Hamann, Phys. Rev. B 88, 085117 (2013)
 in any publication using these pseudopotentials.


 Copyright 2015 The Regents of the University of California
 
 This work is licensed under the Creative Commons Attribution-ShareAlike 
 4.0 International License. To view a copy of this license, visit 
 http://creativecommons.org/licenses/by-sa/4.0/ or send a letter to 
 Creative Commons, PO Box 1866, Mountain View, CA 94042, USA.
 
 This pseudopotential is part of the Schlipf-Gygi norm-conserving 
 pseudopotential library. Its construction parameters were tuned to 
 reproduce materials of a training set with very high accuracy and 
 should be suitable as a general purpose pseudopotential to treat a 
 variety of different compounds. For details of the construction and 
 testing of the pseudopotential please refer to:
 
 [insert reference to paper here]
 
 We kindly ask that you include this reference in all publications 
 associated to this pseudopotential.


    <PP_INPUTFILE>
# ATOM AND REFERENCE CONFIGURATION
# atsym  z    nc    nv    iexc   psfile
  I 53.00     8     3     4      upf
#
#   n    l    f        energy (Ha)
    1    0    2.00
    2    0    2.00
    2    1    6.00
    3    0    2.00
    3    1    6.00
    3    2   10.00
    4    0    2.00
    4    1    6.00
    4    2   10.00
    5    0    2.00
    5    1    5.00
#
# PSEUDOPOTENTIAL AND OPTIMIZATION
# lmax
    2
#
#   l,   rc,     ep,   ncon, nbas, qcut
    0   2.38764  -0.63971    5    8   3.07072
    1   3.33444  -0.26040    5    8   3.93841
    2   3.17908  -1.84771    5    8   8.33670
#
# LOCAL POTENTIAL
# lloc, lpopt,  rc(5),   dvloc0
    4    5   1.66937      0.00000
#
# VANDERBILT-KLEINMAN-BYLANDER PROJECTORs
# l, nproj, debl
    0    2   1.60066
    1    2   1.13374
    2    2   1.87444
#
# MODEL CORE CHARGE
# icmod, fcfact
    0   0.00000
#
# LOG DERIVATIVE ANALYSIS
# epsh1, epsh2, depsh
   -5.00    3.00    0.02
#
# OUTPUT GRID
# rlmax, drl
    6.00    0.01
#
# TEST CONFIGURATIONS
# ncnf
    0
# nvcnf
#   n    l    f
    </PP_INPUTFILE>
  </PP_INFO>
  <!--                               -->
  <!-- END OF HUMAN READABLE SECTION -->
  <!--                               -->
    <PP_HEADER
       generated="Generated using ONCVPSP code by D. R. Hamann"
       author="Martin Schlipf and Francois Gygi"
       date="150415"
       comment=""
       element="I "
       pseudo_type="NC"
       relativistic="scalar"
       is_ultrasoft="F"
       is_paw="F"
       is_coulomb="F"
       has_so="F"
       has_wfc="F"
       has_gipaw="F"
       core_correction="F"
       functional="PBE"
       z_valence="   17.00"
       total_psenergy="  -9.92854160284E+01"
       rho_cutoff="   6.01000000000E+00"
       l_max="2"
       l_local="-1"
       mesh_size="   602"
       number_of_wfc="0"
       number_of_proj="6"/>
 <PP_MESH>
   <PP_R type="real"  size=" 602" columns="8">
    0.0000    0.0100    0.0200    0.0300    0.0400    0.0500    0.0600    0.0700
    0.0800    0.0900    0.1000    0.1100    0.1200    0.1300    0.1400    0.1500
    0.1600    0.1700    0.1800    0.1900    0.2000    0.2100    0.2200    0.2300
    0.2400    0.2500    0.2600    0.2700    0.2800    0.2900    0.3000    0.3100
    0.3200    0.3300    0.3400    0.3500    0.3600    0.3700    0.3800    0.3900
    0.4000    0.4100    0.4200    0.4300    0.4400    0.4500    0.4600    0.4700
    0.4800    0.4900    0.5000    0.5100    0.5200    0.5300    0.5400    0.5500
    0.5600    0.5700    0.5800    0.5900    0.6000    0.6100    0.6200    0.6300
    0.6400    0.6500    0.6600    0.6700    0.6800    0.6900    0.7000    0.7100
    0.7200    0.7300    0.7400    0.7500    0.7600    0.7700    0.7800    0.7900
    0.8000    0.8100    0.8200    0.8300    0.8400    0.8500    0.8600    0.8700
    0.8800    0.8900    0.9000    0.9100    0.9200    0.9300    0.9400    0.9500
    0.9600    0.9700    0.9800    0.9900    1.0000    1.0100    1.0200    1.0300
    1.0400    1.0500    1.0600    1.0700    1.0800    1.0900    1.1000    1.1100
    1.1200    1.1300    1.1400    1.1500    1.1600    1.1700    1.1800    1.1900
    1.2000    1.2100    1.2200    1.2300    1.2400    1.2500    1.2600    1.2700
    1.2800    1.2900    1.3000    1.3100    1.3200    1.3300    1.3400    1.3500
    1.3600    1.3700    1.3800    1.3900    1.4000    1.4100    1.4200    1.4300
    1.4400    1.4500    1.4600    1.4700    1.4800    1.4900    1.5000    1.5100
    1.5200    1.5300    1.5400    1.5500    1.5600    1.5700    1.5800    1.5900
    1.6000    1.6100    1.6200    1.6300    1.6400    1.6500    1.6600    1.6700
    1.6800    1.6900    1.7000    1.7100    1.7200    1.7300    1.7400    1.7500
    1.7600    1.7700    1.7800    1.7900    1.8000    1.8100    1.8200    1.8300
    1.8400    1.8500    1.8600    1.8700    1.8800    1.8900    1.9000    1.9100
    1.9200    1.9300    1.9400    1.9500    1.9600    1.9700    1.9800    1.9900
    2.0000    2.0100    2.0200    2.0300    2.0400    2.0500    2.0600    2.0700
    2.0800    2.0900    2.1000    2.1100    2.1200    2.1300    2.1400    2.1500
    2.1600    2.1700    2.1800    2.1900    2.2000    2.2100    2.2200    2.2300
    2.2400    2.2500    2.2600    2.2700    2.2800    2.2900    2.3000    2.3100
    2.3200    2.3300    2.3400    2.3500    2.3600    2.3700    2.3800    2.3900
    2.4000    2.4100    2.4200    2.4300    2.4400    2.4500    2.4600    2.4700
    2.4800    2.4900    2.5000    2.5100    2.5200    2.5300    2.5400    2.5500
    2.5600    2.5700    2.5800    2.5900    2.6000    2.6100    2.6200    2.6300
    2.6400    2.6500    2.6600    2.6700    2.6800    2.6900    2.7000    2.7100
    2.7200    2.7300    2.7400    2.7500    2.7600    2.7700    2.7800    2.7900
    2.8000    2.8100    2.8200    2.8300    2.8400    2.8500    2.8600    2.8700
    2.8800    2.8900    2.9000    2.9100    2.9200    2.9300    2.9400    2.9500
    2.9600    2.9700    2.9800    2.9900    3.0000    3.0100    3.0200    3.0300
    3.0400    3.0500    3.0600    3.0700    3.0800    3.0900    3.1000    3.1100
    3.1200    3.1300    3.1400    3.1500    3.1600    3.1700    3.1800    3.1900
    3.2000    3.2100    3.2200    3.2300    3.2400    3.2500    3.2600    3.2700
    3.2800    3.2900    3.3000    3.3100    3.3200    3.3300    3.3400    3.3500
    3.3600    3.3700    3.3800    3.3900    3.4000    3.4100    3.4200    3.4300
    3.4400    3.4500    3.4600    3.4700    3.4800    3.4900    3.5000    3.5100
    3.5200    3.5300    3.5400    3.5500    3.5600    3.5700    3.5800    3.5900
    3.6000    3.6100    3.6200    3.6300    3.6400    3.6500    3.6600    3.6700
    3.6800    3.6900    3.7000    3.7100    3.7200    3.7300    3.7400    3.7500
    3.7600    3.7700    3.7800    3.7900    3.8000    3.8100    3.8200    3.8300
    3.8400    3.8500    3.8600    3.8700    3.8800    3.8900    3.9000    3.9100
    3.9200    3.9300    3.9400    3.9500    3.9600    3.9700    3.9800    3.9900
    4.0000    4.0100    4.0200    4.0300    4.0400    4.0500    4.0600    4.0700
    4.0800    4.0900    4.1000    4.1100    4.1200    4.1300    4.1400    4.1500
    4.1600    4.1700    4.1800    4.1900    4.2000    4.2100    4.2200    4.2300
    4.2400    4.2500    4.2600    4.2700    4.2800    4.2900    4.3000    4.3100
    4.3200    4.3300    4.3400    4.3500    4.3600    4.3700    4.3800    4.3900
    4.4000    4.4100    4.4200    4.4300    4.4400    4.4500    4.4600    4.4700
    4.4800    4.4900    4.5000    4.5100    4.5200    4.5300    4.5400    4.5500
    4.5600    4.5700    4.5800    4.5900    4.6000    4.6100    4.6200    4.6300
    4.6400    4.6500    4.6600    4.6700    4.6800    4.6900    4.7000    4.7100
    4.7200    4.7300    4.7400    4.7500    4.7600    4.7700    4.7800    4.7900
    4.8000    4.8100    4.8200    4.8300    4.8400    4.8500    4.8600    4.8700
    4.8800    4.8900    4.9000    4.9100    4.9200    4.9300    4.9400    4.9500
    4.9600    4.9700    4.9800    4.9900    5.0000    5.0100    5.0200    5.0300
    5.0400    5.0500    5.0600    5.0700    5.0800    5.0900    5.1000    5.1100
    5.1200    5.1300    5.1400    5.1500    5.1600    5.1700    5.1800    5.1900
    5.2000    5.2100    5.2200    5.2300    5.2400    5.2500    5.2600    5.2700
    5.2800    5.2900    5.3000    5.3100    5.3200    5.3300    5.3400    5.3500
    5.3600    5.3700    5.3800    5.3900    5.4000    5.4100    5.4200    5.4300
    5.4400    5.4500    5.4600    5.4700    5.4800    5.4900    5.5000    5.5100
    5.5200    5.5300    5.5400    5.5500    5.5600    5.5700    5.5800    5.5900
    5.6000    5.6100    5.6200    5.6300    5.6400    5.6500    5.6600    5.6700
    5.6800    5.6900    5.7000    5.7100    5.7200    5.7300    5.7400    5.7500
    5.7600    5.7700    5.7800    5.7900    5.8000    5.8100    5.8200    5.8300
    5.8400    5.8500    5.8600    5.8700    5.8800    5.8900    5.9000    5.9100
    5.9200    5.9300    5.9400    5.9500    5.9600    5.9700    5.9800    5.9900
    6.0000    6.0100
   </PP_R>
   <PP_RAB type="real"  size=" 602" columns="8">
    0.0100    0.0100    0.0100    0.0100    0.0100    0.0100    0.0100    0.0100
    0.0100    0.0100    0.0100    0.0100    0.0100    0.0100    0.0100    0.0100
    0.0100    0.0100    0.0100    0.0100    0.0100    0.0100    0.0100    0.0100
    0.0100    0.0100    0.0100    0.0100    0.0100    0.0100    0.0100    0.0100
    0.0100    0.0100    0.0100    0.0100    0.0100    0.0100    0.0100    0.0100
    0.0100    0.0100    0.0100    0.0100    0.0100    0.0100    0.0100    0.0100
    0.0100    0.0100    0.0100    0.0100    0.0100    0.0100    0.0100    0.0100
    0.0100    0.0100    0.0100    0.0100    0.0100    0.0100    0.0100    0.0100
    0.0100    0.0100    0.0100    0.0100    0.0100    0.0100    0.0100    0.0100
    0.0100    0.0100    0.0100    0.0100    0.0100    0.0100    0.0100    0.0100
    0.0100    0.0100    0.0100    0.0100    0.0100    0.0100    0.0100    0.0100
    0.0100    0.0100    0.0100    0.0100    0.0100    0.0100    0.0100    0.0100
    0.0100    0.0100    0.0100    0.0100    0.0100    0.0100    0.0100    0.0100
    0.0100    0.0100    0.0100    0.0100    0.0100    0.0100    0.0100    0.0100
    0.0100    0.0100    0.0100    0.0100    0.0100    0.0100    0.0100    0.0100
    0.0100    0.0100    0.0100    0.0100    0.0100    0.0100    0.0100    0.0100
    0.0100    0.0100    0.0100    0.0100    0.0100    0.0100    0.0100    0.0100
    0.0100    0.0100    0.0100    0.0100    0.0100    0.0100    0.0100    0.0100
    0.0100    0.0100    0.0100    0.0100    0.0100    0.0100    0.0100    0.0100
    0.0100    0.0100    0.0100    0.0100    0.0100    0.0100    0.0100    0.0100
    0.0100    0.0100    0.0100    0.0100    0.0100    0.0100    0.0100    0.0100
    0.0100    0.0100    0.0100    0.0100    0.0100    0.0100    0.0100    0.0100
    0.0100    0.0100    0.0100    0.0100    0.0100    0.0100    0.0100    0.0100
    0.0100    0.0100    0.0100    0.0100    0.0100    0.0100    0.0100    0.0100
    0.0100    0.0100    0.0100    0.0100    0.0100    0.0100    0.0100    0.0100
    0.0100    0.0100    0.0100    0.0100    0.0100    0.0100    0.0100    0.0100
    0.0100    0.0100    0.0100    0.0100    0.0100    0.0100    0.0100    0.0100
    0.0100    0.0100    0.0100    0.0100    0.0100    0.0100    0.0100    0.0100
    0.0100    0.0100    0.0100    0.0100    0.0100    0.0100    0.0100    0.0100
    0.0100    0.0100    0.0100    0.0100    0.0100    0.0100    0.0100    0.0100
    0.0100    0.0100    0.0100    0.0100    0.0100    0.0100    0.0100    0.0100
    0.0100    0.0100    0.0100    0.0100    0.0100    0.0100    0.0100    0.0100
    0.0100    0.0100    0.0100    0.0100    0.0100    0.0100    0.0100    0.0100
    0.0100    0.0100    0.0100    0.0100    0.0100    0.0100    0.0100    0.0100
    0.0100    0.0100    0.0100    0.0100    0.0100    0.0100    0.0100    0.0100
    0.0100    0.0100    0.0100    0.0100    0.0100    0.0100    0.0100    0.0100
    0.0100    0.0100    0.0100    0.0100    0.0100    0.0100    0.0100    0.0100
    0.0100    0.0100    0.0100    0.0100    0.0100    0.0100    0.0100    0.0100
    0.0100    0.0100    0.0100    0.0100    0.0100    0.0100    0.0100    0.0100
    0.0100    0.0100    0.0100    0.0100    0.0100    0.0100    0.0100    0.0100
    0.0100    0.0100    0.0100    0.0100    0.0100    0.0100    0.0100    0.0100
    0.0100    0.0100    0.0100    0.0100    0.0100    0.0100    0.0100    0.0100
    0.0100    0.0100    0.0100    0.0100    0.0100    0.0100    0.0100    0.0100
    0.0100    0.0100    0.0100    0.0100    0.0100    0.0100    0.0100    0.0100
    0.0100    0.0100    0.0100    0.0100    0.0100    0.0100    0.0100    0.0100
    0.0100    0.0100    0.0100    0.0100    0.0100    0.0100    0.0100    0.0100
    0.0100    0.0100    0.0100    0.0100    0.0100    0.0100    0.0100    0.0100
    0.0100    0.0100    0.0100    0.0100    0.0100    0.0100    0.0100    0.0100
    0.0100    0.0100    0.0100    0.0100    0.0100    0.0100    0.0100    0.0100
    0.0100    0.0100    0.0100    0.0100    0.0100    0.0100    0.0100    0.0100
    0.0100    0.0100    0.0100    0.0100    0.0100    0.0100    0.0100    0.0100
    0.0100    0.0100    0.0100    0.0100    0.0100    0.0100    0.0100    0.0100
    0.0100    0.0100    0.0100    0.0100    0.0100    0.0100    0.0100    0.0100
    0.0100    0.0100    0.0100    0.0100    0.0100    0.0100    0.0100    0.0100
    0.0100    0.0100    0.0100    0.0100    0.0100    0.0100    0.0100    0.0100
    0.0100    0.0100    0.0100    0.0100    0.0100    0.0100    0.0100    0.0100
    0.0100    0.0100    0.0100    0.0100    0.0100    0.0100    0.0100    0.0100
    0.0100    0.0100    0.0100    0.0100    0.0100    0.0100    0.0100    0.0100
    0.0100    0.0100    0.0100    0.0100    0.0100    0.0100    0.0100    0.0100
    0.0100    0.0100    0.0100    0.0100    0.0100    0.0100    0.0100    0.0100
    0.0100    0.0100    0.0100    0.0100    0.0100    0.0100    0.0100    0.0100
    0.0100    0.0100    0.0100    0.0100    0.0100    0.0100    0.0100    0.0100
    0.0100    0.0100    0.0100    0.0100    0.0100    0.0100    0.0100    0.0100
    0.0100    0.0100    0.0100    0.0100    0.0100    0.0100    0.0100    0.0100
    0.0100    0.0100    0.0100    0.0100    0.0100    0.0100    0.0100    0.0100
    0.0100    0.0100    0.0100    0.0100    0.0100    0.0100    0.0100    0.0100
    0.0100    0.0100    0.0100    0.0100    0.0100    0.0100    0.0100    0.0100
    0.0100    0.0100    0.0100    0.0100    0.0100    0.0100    0.0100    0.0100
    0.0100    0.0100    0.0100    0.0100    0.0100    0.0100    0.0100    0.0100
    0.0100    0.0100    0.0100    0.0100    0.0100    0.0100    0.0100    0.0100
    0.0100    0.0100    0.0100    0.0100    0.0100    0.0100    0.0100    0.0100
    0.0100    0.0100    0.0100    0.0100    0.0100    0.0100    0.0100    0.0100
    0.0100    0.0100    0.0100    0.0100    0.0100    0.0100    0.0100    0.0100
    0.0100    0.0100    0.0100    0.0100    0.0100    0.0100    0.0100    0.0100
    0.0100    0.0100    0.0100    0.0100    0.0100    0.0100    0.0100    0.0100
    0.0100    0.0100
   </PP_RAB>
 </PP_MESH>
  <PP_LOCAL type="real"  size=" 602" columns="4">
   -4.1833689411E+01   -4.1656205317E+01   -4.2157851355E+01   -4.3003089600E+01
   -4.3856382130E+01   -4.4044580677E+01   -4.3336648863E+01   -4.2334616564E+01
   -4.1623546767E+01   -4.1281391596E+01   -4.1156492504E+01   -4.1117765933E+01
   -4.1100232531E+01   -4.1080324117E+01   -4.1052292791E+01   -4.1016378811E+01
   -4.0974248435E+01   -4.0927573781E+01   -4.0877727335E+01   -4.0825799940E+01
   -4.0772677389E+01   -4.0719102348E+01   -4.0665709585E+01   -4.0613038800E+01
   -4.0561531580E+01   -4.0511518237E+01   -4.0463199146E+01   -4.0416624101E+01
   -4.0371673127E+01   -4.0328042042E+01   -4.0285235365E+01   -4.0242569304E+01
   -4.0199186280E+01   -4.0154082173E+01   -4.0106146038E+01   -4.0054209741E+01
   -3.9997105557E+01   -3.9933727461E+01   -3.9863090725E+01   -3.9784385642E+01
   -3.9697021653E+01   -3.9600656824E+01   -3.9495211083E+01   -3.9380862847E+01
   -3.9258029306E+01   -3.9127332718E+01   -3.8989556095E+01   -3.8845592912E+01
   -3.8696394761E+01   -3.8542921338E+01   -3.8386097523E+01   -3.8226779481E+01
   -3.8065728802E+01   -3.7903600983E+01   -3.7740939610E+01   -3.7578179044E+01
   -3.7415655295E+01   -3.7253614639E+01   -3.7092231018E+01   -3.6931616367E+01
   -3.6771835877E+01   -3.6612917896E+01   -3.6454863527E+01   -3.6297654734E+01
   -3.6141259113E+01   -3.5985634761E+01   -3.5830732939E+01   -3.5676499591E+01
   -3.5522876368E+01   -3.5369800820E+01   -3.5217206154E+01   -3.5065020486E+01
   -3.4913166141E+01   -3.4761558875E+01   -3.4610107118E+01   -3.4458711428E+01
   -3.4307264268E+01   -3.4155650088E+01   -3.4003745845E+01   -3.3851422252E+01
   -3.3698545344E+01   -3.3544978607E+01   -3.3390585577E+01   -3.3235232809E+01
   -3.3078793104E+01   -3.2921148827E+01   -3.2762195161E+01   -3.2601843112E+01
   -3.2440022095E+01   -3.2276681970E+01   -3.2111794395E+01   -3.1945353456E+01
   -3.1777375536E+01   -3.1607898280E+01   -3.1436979507E+01   -3.1264695308E+01
   -3.1091137045E+01   -3.0916408909E+01   -3.0740625111E+01   -3.0563907119E+01
   -3.0386381023E+01   -3.0208175219E+01   -3.0029418225E+01   -2.9850236597E+01
   -2.9670753632E+01   -2.9491088261E+01   -2.9311354428E+01   -2.9131660312E+01
   -2.8952107376E+01   -2.8772791232E+01   -2.8593801428E+01   -2.8415222176E+01
   -2.8237130823E+01   -2.8059599817E+01   -2.7882696810E+01   -2.7706485438E+01
   -2.7531023934E+01   -2.7356367226E+01   -2.7182567041E+01   -2.7009671910E+01
   -2.6837726797E+01   -2.6666774489E+01   -2.6496855799E+01   -2.6328008254E+01
   -2.6160267716E+01   -2.5993668505E+01   -2.5828242273E+01   -2.5664018989E+01
   -2.5501027429E+01   -2.5339293818E+01   -2.5178842787E+01   -2.5019698008E+01
   -2.4861880283E+01   -2.4705409218E+01   -2.4550303239E+01   -2.4396577785E+01
   -2.4244247618E+01   -2.4093325414E+01   -2.3943821540E+01   -2.3795745961E+01
   -2.3649105298E+01   -2.3503905479E+01   -2.3360150699E+01   -2.3217842589E+01
   -2.3076982792E+01   -2.2937569423E+01   -2.2799600537E+01   -2.2663072017E+01
   -2.2527978204E+01   -2.2394312894E+01   -2.2262067137E+01   -2.2131232520E+01
   -2.2001797554E+01   -2.1873751147E+01   -2.1747080046E+01   -2.1621770506E+01
   -2.1497807605E+01   -2.1375175117E+01   -2.1253856475E+01   -2.1133833018E+01
   -2.1015086497E+01   -2.0897595723E+01   -2.0781340643E+01   -2.0666297306E+01
   -2.0552443653E+01   -2.0439752684E+01   -2.0328199669E+01   -2.0217754660E+01
   -2.0108389054E+01   -2.0000073925E+01   -1.9892779511E+01   -1.9786480668E+01
   -1.9681150053E+01   -1.9576764692E+01   -1.9473299527E+01   -1.9370733082E+01
   -1.9269042243E+01   -1.9168206644E+01   -1.9068204787E+01   -1.8969017364E+01
   -1.8870624346E+01   -1.8773007529E+01   -1.8676148526E+01   -1.8580030281E+01
   -1.8484636574E+01   -1.8389951455E+01   -1.8295961642E+01   -1.8202652198E+01
   -1.8110013347E+01   -1.8018031798E+01   -1.7926700621E+01   -1.7836010054E+01
   -1.7745954487E+01   -1.7656528644E+01   -1.7567727812E+01   -1.7479551132E+01
   -1.7391994828E+01   -1.7305061020E+01   -1.7218748871E+01   -1.7133060725E+01
   -1.7047998920E+01   -1.6963565802E+01   -1.6879765356E+01   -1.6796600669E+01
   -1.6714075657E+01   -1.6632194204E+01   -1.6550959780E+01   -1.6470375617E+01
   -1.6390445618E+01   -1.6311171494E+01   -1.6232556393E+01   -1.6154601803E+01
   -1.6077308554E+01   -1.6000678775E+01   -1.5924711158E+01   -1.5849406305E+01
   -1.5774763229E+01   -1.5700779766E+01   -1.5627455558E+01   -1.5554786807E+01
   -1.5482771157E+01   -1.5411405782E+01   -1.5340686155E+01   -1.5270609160E+01
   -1.5201169955E+01   -1.5132363636E+01   -1.5064186128E+01   -1.4996631372E+01
   -1.4929694231E+01   -1.4863369306E+01   -1.4797650271E+01   -1.4732531525E+01
   -1.4668006758E+01   -1.4604069429E+01   -1.4540713523E+01   -1.4477932138E+01
   -1.4415718561E+01   -1.4354066320E+01   -1.4292968290E+01   -1.4232417587E+01
   -1.4172407331E+01   -1.4112930591E+01   -1.4053980403E+01   -1.3995549859E+01
   -1.3937632245E+01   -1.3880220688E+01   -1.3823308425E+01   -1.3766888839E+01
   -1.3710955096E+01   -1.3655500615E+01   -1.3600518999E+01   -1.3546003571E+01
   -1.3491947963E+01   -1.3438345990E+01   -1.3385191146E+01   -1.3332477286E+01
   -1.3280198476E+01   -1.3228348432E+01   -1.3176921216E+01   -1.3125911177E+01
   -1.3075312298E+01   -1.3025118817E+01   -1.2975325403E+01   -1.2925926342E+01
   -1.2876916016E+01   -1.2828289437E+01   -1.2780041241E+01   -1.2732165904E+01
   -1.2684658814E+01   -1.2637514982E+01   -1.2590728959E+01   -1.2544296501E+01
   -1.2498212924E+01   -1.2452473157E+01   -1.2407072987E+01   -1.2362008153E+01
   -1.2317274005E+01   -1.2272866289E+01   -1.2228781181E+01   -1.2185014492E+01
   -1.2141561867E+01   -1.2098419924E+01   -1.2055584864E+01   -1.2013052468E+01
   -1.1970819511E+01   -1.1928882565E+01   -1.1887237883E+01   -1.1845882027E+01
   -1.1804812030E+01   -1.1764024636E+01   -1.1723516171E+01   -1.1683284091E+01
   -1.1643325403E+01   -1.1603636859E+01   -1.1564215648E+01   -1.1525059211E+01
   -1.1486164765E+01   -1.1447529203E+01   -1.1409150345E+01   -1.1371025637E+01
   -1.1333152338E+01   -1.1295527979E+01   -1.1258150374E+01   -1.1221017147E+01
   -1.1184125642E+01   -1.1147473870E+01   -1.1111059640E+01   -1.1074880655E+01
   -1.1038934604E+01   -1.1003219583E+01   -1.0967733493E+01   -1.0932474108E+01
   -1.0897439423E+01   -1.0862627531E+01   -1.0828036433E+01   -1.0793663982E+01
   -1.0759508365E+01   -1.0725567684E+01   -1.0691840002E+01   -1.0658323294E+01
   -1.0625015815E+01   -1.0591915699E+01   -1.0559021048E+01   -1.0526329962E+01
   -1.0493840703E+01   -1.0461551455E+01   -1.0429460351E+01   -1.0397565574E+01
   -1.0365865421E+01   -1.0334358121E+01   -1.0303041823E+01   -1.0271914790E+01
   -1.0240975390E+01   -1.0210221915E+01   -1.0179652524E+01   -1.0149265584E+01
   -1.0119059580E+01   -1.0089032892E+01   -1.0059183774E+01   -1.0029510679E+01
   -1.0000012176E+01   -9.9706867322E+00   -9.9415327221E+00   -9.9125486481E+00
   -9.8837331357E+00   -9.8550847197E+00   -9.8266018554E+00   -9.7982830702E+00
   -9.7701270821E+00   -9.7421324951E+00   -9.7142978644E+00   -9.6866217242E+00
   -9.6591028781E+00   -9.6317399951E+00   -9.6045317325E+00   -9.5774766105E+00
   -9.5505735234E+00   -9.5238212022E+00   -9.4972183779E+00   -9.4707636397E+00
   -9.4444558746E+00   -9.4182939055E+00   -9.3922765226E+00   -9.3664024261E+00
   -9.3406704405E+00   -9.3150794958E+00   -9.2896284383E+00   -9.2643160855E+00
   -9.2391411837E+00   -9.2141027701E+00   -9.1891997448E+00   -9.1644310079E+00
   -9.1397953348E+00   -9.1152917497E+00   -9.0909192428E+00   -9.0666767656E+00
   -9.0425632187E+00   -9.0185775087E+00   -8.9947187455E+00   -8.9709859293E+00
   -8.9473780602E+00   -8.9238940140E+00   -8.9005329206E+00   -8.8772938579E+00
   -8.8541758728E+00   -8.8311779746E+00   -8.8082991424E+00   -8.7855385823E+00
   -8.7628953854E+00   -8.7403686429E+00   -8.7179573525E+00   -8.6956606675E+00
   -8.6734777784E+00   -8.6514078184E+00   -8.6294499213E+00   -8.6076030844E+00
   -8.5858666076E+00   -8.5642396720E+00   -8.5427214515E+00   -8.5213110877E+00
   -8.5000076848E+00   -8.4788105648E+00   -8.4577189401E+00   -8.4367320231E+00
   -8.4158489645E+00   -8.3950689749E+00   -8.3743913820E+00   -8.3538154348E+00
   -8.3333403823E+00   -8.3129653925E+00   -8.2926897598E+00   -8.2725128242E+00
   -8.2524338694E+00   -8.2324521797E+00   -8.2125669470E+00   -8.1927775285E+00
   -8.1730832829E+00   -8.1534835276E+00   -8.1339775799E+00   -8.1145646624E+00
   -8.0952441750E+00   -8.0760155018E+00   -8.0568779922E+00   -8.0378309951E+00
   -8.0188737696E+00   -8.0000057395E+00   -7.9812263210E+00   -7.9625348936E+00
   -7.9439308367E+00   -7.9254134512E+00   -7.9069821675E+00   -7.8886364395E+00
   -7.8703756758E+00   -7.8521992846E+00   -7.8341066143E+00   -7.8160970850E+00
   -7.7981701943E+00   -7.7803253781E+00   -7.7625620723E+00   -7.7448796779E+00
   -7.7272775899E+00   -7.7097553538E+00   -7.6923124317E+00   -7.6749482860E+00
   -7.6576623756E+00   -7.6404540564E+00   -7.6233229256E+00   -7.6062684704E+00
   -7.5892901782E+00   -7.5723875363E+00   -7.5555599531E+00   -7.5388069769E+00
   -7.5221281530E+00   -7.5055229926E+00   -7.4889910070E+00   -7.4725316728E+00
   -7.4561444665E+00   -7.4398289979E+00   -7.4235848008E+00   -7.4074114094E+00
   -7.3913083575E+00   -7.3752750882E+00   -7.3593112284E+00   -7.3434163499E+00
   -7.3275900082E+00   -7.3118317592E+00   -7.2961411233E+00   -7.2805176277E+00
   -7.2649609189E+00   -7.2494705732E+00   -7.2340461670E+00   -7.2186872768E+00
   -7.2033934028E+00   -7.1881641852E+00   -7.1729992466E+00   -7.1578981831E+00
   -7.1428605910E+00   -7.1278860573E+00   -7.1129740984E+00   -7.0981244193E+00
   -7.0833366348E+00   -7.0686103599E+00   -7.0539452095E+00   -7.0393407626E+00
   -7.0247966142E+00   -7.0103124593E+00   -6.9958879306E+00   -6.9815226612E+00
   -6.9672162840E+00   -6.9529683767E+00   -6.9387785956E+00   -6.9246466319E+00
   -6.9105721354E+00   -6.8965547561E+00   -6.8825941442E+00   -6.8686898830E+00
   -6.8548416732E+00   -6.8410492081E+00   -6.8273121541E+00   -6.8136301775E+00
   -6.8000029445E+00   -6.7864300505E+00   -6.7729112244E+00   -6.7594461681E+00
   -6.7460345635E+00   -6.7326760925E+00   -6.7193704369E+00   -6.7061172094E+00
   -6.6929161523E+00   -6.6797669822E+00   -6.6666693956E+00   -6.6536230894E+00
   -6.6406277601E+00   -6.6276830432E+00   -6.6147886803E+00   -6.6019444080E+00
   -6.5891499373E+00   -6.5764049788E+00   -6.5637092435E+00   -6.5510623946E+00
   -6.5384641597E+00   -6.5259143010E+00   -6.5134125427E+00   -6.5009586091E+00
   -6.4885522245E+00   -6.4761930851E+00   -6.4638808922E+00   -6.4516154379E+00
   -6.4393964594E+00   -6.4272236938E+00   -6.4150968782E+00   -6.4030157466E+00
   -6.3909799627E+00   -6.3789893526E+00   -6.3670436656E+00   -6.3551426513E+00
   -6.3432860589E+00   -6.3314736378E+00   -6.3197050845E+00   -6.3079801823E+00
   -6.2962987187E+00   -6.2846604547E+00   -6.2730651514E+00   -6.2615125699E+00
   -6.2500024542E+00   -6.2385345244E+00   -6.2271086129E+00   -6.2157244917E+00
   -6.2043819331E+00   -6.1930807093E+00   -6.1818205924E+00   -6.1706013023E+00
   -6.1594226473E+00   -6.1482844336E+00   -6.1371864438E+00   -6.1261284608E+00
   -6.1151102675E+00   -6.1041316399E+00   -6.0931923017E+00   -6.0822921123E+00
   -6.0714308647E+00   -6.0606083516E+00   -6.0498243661E+00   -6.0390787011E+00
   -6.0283711199E+00   -6.0177014061E+00   -6.0070694047E+00   -5.9964749185E+00
   -5.9859177499E+00   -5.9753977016E+00   -5.9649145762E+00   -5.9544681308E+00
   -5.9440581938E+00   -5.9336846023E+00   -5.9233471680E+00   -5.9130457026E+00
   -5.9027800179E+00   -5.8925499257E+00   -5.8823551831E+00   -5.8721956493E+00
   -5.8620711590E+00   -5.8519815325E+00   -5.8419265904E+00   -5.8319061533E+00
   -5.8219200417E+00   -5.8119680179E+00   -5.8020499592E+00   -5.7921657031E+00
   -5.7823150784E+00   -5.7724979141E+00   -5.7627140391E+00   -5.7529632822E+00
   -5.7432454161E+00   -5.7335603237E+00   -5.7239078507E+00   -5.7142878342E+00
   -5.7047001109E+00   -5.6951445177E+00   -5.6856208916E+00   -5.6761290202E+00
   -5.6666687804E+00   -5.6572400314E+00
  </PP_LOCAL>
 <PP_NONLOCAL>
   <PP_BETA.1
       type="real"
       size=" 602"
       columns="4"
       index="1"
       angular_momentum="0"
       cutoff_radius_index=" 338"
       cutoff_radius="    3.3700000000E+00" >
    0.0000000000E+00   -2.2265698069E-02   -4.4536324628E-02   -6.6816744660E-02
   -8.9111696389E-02   -1.1142572855E-01   -1.3376313845E-01   -1.5612791098E-01
   -1.7852365904E-01   -2.0095356531E-01   -2.2342032593E-01   -2.4592609607E-01
   -2.6847243769E-01   -2.9106026979E-01   -3.1368982123E-01   -3.3636058630E-01
   -3.5907128337E-01   -3.8181981663E-01   -4.0460324108E-01   -4.2741773111E-01
   -4.5025855244E-01   -4.7312003791E-01   -4.9599556690E-01   -5.1887754872E-01
   -5.4175740981E-01   -5.6462558499E-01   -5.8747151266E-01   -6.1028363402E-01
   -6.3304939638E-01   -6.5575526039E-01   -6.7838671138E-01   -7.0092827457E-01
   -7.2336353422E-01   -7.4567515669E-01   -7.6784491701E-01   -7.8985372969E-01
   -8.1168168213E-01   -8.3330807293E-01   -8.5471145206E-01   -8.7586966485E-01
   -8.9675989961E-01   -9.1735873746E-01   -9.3764220495E-01   -9.5758582955E-01
   -9.7716469755E-01   -9.9635351410E-01   -1.0151266650E+00   -1.0334582808E+00
   -1.0513223042E+00   -1.0686925557E+00   -1.0855428018E+00   -1.1018468228E+00
   -1.1175784928E+00   -1.1327118382E+00   -1.1472211170E+00   -1.1610808948E+00
   -1.1742661014E+00   -1.1867521298E+00   -1.1985148746E+00   -1.2095308400E+00
   -1.2197771787E+00   -1.2292317827E+00   -1.2378733530E+00   -1.2456814395E+00
   -1.2526365569E+00   -1.2587202129E+00   -1.2639149672E+00   -1.2682045291E+00
   -1.2715737938E+00   -1.2740088986E+00   -1.2754972724E+00   -1.2760277158E+00
   -1.2755904356E+00   -1.2741770867E+00   -1.2717808227E+00   -1.2683963370E+00
   -1.2640198989E+00   -1.2586493927E+00   -1.2522843590E+00   -1.2449260064E+00
   -1.2365772427E+00   -1.2272426963E+00   -1.2169287328E+00   -1.2056434687E+00
   -1.1933967803E+00   -1.1802003083E+00   -1.1660674589E+00   -1.1510133997E+00
   -1.1350550517E+00   -1.1182110769E+00   -1.1005018612E+00   -1.0819494924E+00