<UPF version="2.0.1">
  <PP_INFO>

 This pseudopotential file has been produced using the code
 ONCVPSP  (Optimized Norm-Conservinng Vanderbilt PSeudopotential)
 scalar-relativistic version 2.1.1, 03/26/2014 by D. R. Hamann
 The code is available through a link at URL www.mat-simresearch.com.
 Documentation with the package provides a full discription of the
 input data below.


 While it is not required under the terms of the GNU GPL, it is
 suggested that you cite D. R. Hamann, Phys. Rev. B 88, 085117 (2013)
 in any publication using these pseudopotentials.


 Copyright 2015 The Regents of the University of California
 
 This work is licensed under the Creative Commons Attribution-ShareAlike 
 4.0 International License. To view a copy of this license, visit 
 http://creativecommons.org/licenses/by-sa/4.0/ or send a letter to 
 Creative Commons, PO Box 1866, Mountain View, CA 94042, USA.
 
 This pseudopotential is part of the Schlipf-Gygi norm-conserving 
 pseudopotential library. Its construction parameters were tuned to 
 reproduce materials of a training set with very high accuracy and 
 should be suitable as a general purpose pseudopotential to treat a 
 variety of different compounds. For details of the construction and 
 testing of the pseudopotential please refer to:
 
 [insert reference to paper here]
 
 We kindly ask that you include this reference in all publications 
 associated to this pseudopotential.


    <PP_INPUTFILE>
# ATOM AND REFERENCE CONFIGURATION
# atsym  z    nc    nv    iexc   psfile
  In 49.00     8     3     4      upf
#
#   n    l    f        energy (Ha)
    1    0    2.00
    2    0    2.00
    2    1    6.00
    3    0    2.00
    3    1    6.00
    3    2   10.00
    4    0    2.00
    4    1    6.00
    4    2   10.00
    5    0    2.00
    5    1    1.00
#
# PSEUDOPOTENTIAL AND OPTIMIZATION
# lmax
    2
#
#   l,   rc,     ep,   ncon, nbas, qcut
    0   3.35753  -0.30176    5    8   3.91777
    1   3.43859  -0.09256    5    8   4.23392
    2   2.67664  -0.68439    5    8   5.49940
#
# LOCAL POTENTIAL
# lloc, lpopt,  rc(5),   dvloc0
    4    5   1.74217      0.00000
#
# VANDERBILT-KLEINMAN-BYLANDER PROJECTORs
# l, nproj, debl
    0    2   1.13970
    1    2   0.93159
    2    2   1.43255
#
# MODEL CORE CHARGE
# icmod, fcfact
    0   0.00000
#
# LOG DERIVATIVE ANALYSIS
# epsh1, epsh2, depsh
   -5.00    3.00    0.02
#
# OUTPUT GRID
# rlmax, drl
    6.00    0.01
#
# TEST CONFIGURATIONS
# ncnf
    0
# nvcnf
#   n    l    f
    </PP_INPUTFILE>
  </PP_INFO>
  <!--                               -->
  <!-- END OF HUMAN READABLE SECTION -->
  <!--                               -->
    <PP_HEADER
       generated="Generated using ONCVPSP code by D. R. Hamann"
       author="Martin Schlipf and Francois Gygi"
       date="150415"
       comment=""
       element="In"
       pseudo_type="NC"
       relativistic="scalar"
       is_ultrasoft="F"
       is_paw="F"
       is_coulomb="F"
       has_so="F"
       has_wfc="F"
       has_gipaw="F"
       core_correction="F"
       functional="PBE"
       z_valence="   13.00"
       total_psenergy="  -5.22009414083E+01"
       rho_cutoff="   6.01000000000E+00"
       l_max="2"
       l_local="-1"
       mesh_size="   602"
       number_of_wfc="0"
       number_of_proj="6"/>
 <PP_MESH>
   <PP_R type="real"  size=" 602" columns="8">
    0.0000    0.0100    0.0200    0.0300    0.0400    0.0500    0.0600    0.0700
    0.0800    0.0900    0.1000    0.1100    0.1200    0.1300    0.1400    0.1500
    0.1600    0.1700    0.1800    0.1900    0.2000    0.2100    0.2200    0.2300
    0.2400    0.2500    0.2600    0.2700    0.2800    0.2900    0.3000    0.3100
    0.3200    0.3300    0.3400    0.3500    0.3600    0.3700    0.3800    0.3900
    0.4000    0.4100    0.4200    0.4300    0.4400    0.4500    0.4600    0.4700
    0.4800    0.4900    0.5000    0.5100    0.5200    0.5300    0.5400    0.5500
    0.5600    0.5700    0.5800    0.5900    0.6000    0.6100    0.6200    0.6300
    0.6400    0.6500    0.6600    0.6700    0.6800    0.6900    0.7000    0.7100
    0.7200    0.7300    0.7400    0.7500    0.7600    0.7700    0.7800    0.7900
    0.8000    0.8100    0.8200    0.8300    0.8400    0.8500    0.8600    0.8700
    0.8800    0.8900    0.9000    0.9100    0.9200    0.9300    0.9400    0.9500
    0.9600    0.9700    0.9800    0.9900    1.0000    1.0100    1.0200    1.0300
    1.0400    1.0500    1.0600    1.0700    1.0800    1.0900    1.1000    1.1100
    1.1200    1.1300    1.1400    1.1500    1.1600    1.1700    1.1800    1.1900
    1.2000    1.2100    1.2200    1.2300    1.2400    1.2500    1.2600    1.2700
    1.2800    1.2900    1.3000    1.3100    1.3200    1.3300    1.3400    1.3500
    1.3600    1.3700    1.3800    1.3900    1.4000    1.4100    1.4200    1.4300
    1.4400    1.4500    1.4600    1.4700    1.4800    1.4900    1.5000    1.5100
    1.5200    1.5300    1.5400    1.5500    1.5600    1.5700    1.5800    1.5900
    1.6000    1.6100    1.6200    1.6300    1.6400    1.6500    1.6600    1.6700
    1.6800    1.6900    1.7000    1.7100    1.7200    1.7300    1.7400    1.7500
    1.7600    1.7700    1.7800    1.7900    1.8000    1.8100    1.8200    1.8300
    1.8400    1.8500    1.8600    1.8700    1.8800    1.8900    1.9000    1.9100
    1.9200    1.9300    1.9400    1.9500    1.9600    1.9700    1.9800    1.9900
    2.0000    2.0100    2.0200    2.0300    2.0400    2.0500    2.0600    2.0700
    2.0800    2.0900    2.1000    2.1100    2.1200    2.1300    2.1400    2.1500
    2.1600    2.1700    2.1800    2.1900    2.2000    2.2100    2.2200    2.2300
    2.2400    2.2500    2.2600    2.2700    2.2800    2.2900    2.3000    2.3100
    2.3200    2.3300    2.3400    2.3500    2.3600    2.3700    2.3800    2.3900
    2.4000    2.4100    2.4200    2.4300    2.4400    2.4500    2.4600    2.4700
    2.4800    2.4900    2.5000    2.5100    2.5200    2.5300    2.5400    2.5500
    2.5600    2.5700    2.5800    2.5900    2.6000    2.6100    2.6200    2.6300
    2.6400    2.6500    2.6600    2.6700    2.6800    2.6900    2.7000    2.7100
    2.7200    2.7300    2.7400    2.7500    2.7600    2.7700    2.7800    2.7900
    2.8000    2.8100    2.8200    2.8300    2.8400    2.8500    2.8600    2.8700
    2.8800    2.8900    2.9000    2.9100    2.9200    2.9300    2.9400    2.9500
    2.9600    2.9700    2.9800    2.9900    3.0000    3.0100    3.0200    3.0300
    3.0400    3.0500    3.0600    3.0700    3.0800    3.0900    3.1000    3.1100
    3.1200    3.1300    3.1400    3.1500    3.1600    3.1700    3.1800    3.1900
    3.2000    3.2100    3.2200    3.2300    3.2400    3.2500    3.2600    3.2700
    3.2800    3.2900    3.3000    3.3100    3.3200    3.3300    3.3400    3.3500
    3.3600    3.3700    3.3800    3.3900    3.4000    3.4100    3.4200    3.4300
    3.4400    3.4500    3.4600    3.4700    3.4800    3.4900    3.5000    3.5100
    3.5200    3.5300    3.5400    3.5500    3.5600    3.5700    3.5800    3.5900
    3.6000    3.6100    3.6200    3.6300    3.6400    3.6500    3.6600    3.6700
    3.6800    3.6900    3.7000    3.7100    3.7200    3.7300    3.7400    3.7500
    3.7600    3.7700    3.7800    3.7900    3.8000    3.8100    3.8200    3.8300
    3.8400    3.8500    3.8600    3.8700    3.8800    3.8900    3.9000    3.9100
    3.9200    3.9300    3.9400    3.9500    3.9600    3.9700    3.9800    3.9900
    4.0000    4.0100    4.0200    4.0300    4.0400    4.0500    4.0600    4.0700
    4.0800    4.0900    4.1000    4.1100    4.1200    4.1300    4.1400    4.1500
    4.1600    4.1700    4.1800    4.1900    4.2000    4.2100    4.2200    4.2300
    4.2400    4.2500    4.2600    4.2700    4.2800    4.2900    4.3000    4.3100
    4.3200    4.3300    4.3400    4.3500    4.3600    4.3700    4.3800    4.3900
    4.4000    4.4100    4.4200    4.4300    4.4400    4.4500    4.4600    4.4700
    4.4800    4.4900    4.5000    4.5100    4.5200    4.5300    4.5400    4.5500
    4.5600    4.5700    4.5800    4.5900    4.6000    4.6100    4.6200    4.6300
    4.6400    4.6500    4.6600    4.6700    4.6800    4.6900    4.7000    4.7100
    4.7200    4.7300    4.7400    4.7500    4.7600    4.7700    4.7800    4.7900
    4.8000    4.8100    4.8200    4.8300    4.8400    4.8500    4.8600    4.8700
    4.8800    4.8900    4.9000    4.9100    4.9200    4.9300    4.9400    4.9500
    4.9600    4.9700    4.9800    4.9900    5.0000    5.0100    5.0200    5.0300
    5.0400    5.0500    5.0600    5.0700    5.0800    5.0900    5.1000    5.1100
    5.1200    5.1300    5.1400    5.1500    5.1600    5.1700    5.1800    5.1900
    5.2000    5.2100    5.2200    5.2300    5.2400    5.2500    5.2600    5.2700
    5.2800    5.2900    5.3000    5.3100    5.3200    5.3300    5.3400    5.3500
    5.3600    5.3700    5.3800    5.3900    5.4000    5.4100    5.4200    5.4300
    5.4400    5.4500    5.4600    5.4700    5.4800    5.4900    5.5000    5.5100
    5.5200    5.5300    5.5400    5.5500    5.5600    5.5700    5.5800    5.5900
    5.6000    5.6100    5.6200    5.6300    5.6400    5.6500    5.6600    5.6700
    5.6800    5.6900    5.7000    5.7100    5.7200    5.7300    5.7400    5.7500
    5.7600    5.7700    5.7800    5.7900    5.8000    5.8100    5.8200    5.8300
    5.8400    5.8500    5.8600    5.8700    5.8800    5.8900    5.9000    5.9100
    5.9200    5.9300    5.9400    5.9500    5.9600    5.9700    5.9800    5.9900
    6.0000    6.0100
   </PP_R>
   <PP_RAB type="real"  size=" 602" columns="8">
    0.0100    0.0100    0.0100    0.0100    0.0100    0.0100    0.0100    0.0100
    0.0100    0.0100    0.0100    0.0100    0.0100    0.0100    0.0100    0.0100
    0.0100    0.0100    0.0100    0.0100    0.0100    0.0100    0.0100    0.0100
    0.0100    0.0100    0.0100    0.0100    0.0100    0.0100    0.0100    0.0100
    0.0100    0.0100    0.0100    0.0100    0.0100    0.0100    0.0100    0.0100
    0.0100    0.0100    0.0100    0.0100    0.0100    0.0100    0.0100    0.0100
    0.0100    0.0100    0.0100    0.0100    0.0100    0.0100    0.0100    0.0100
    0.0100    0.0100    0.0100    0.0100    0.0100    0.0100    0.0100    0.0100
    0.0100    0.0100    0.0100    0.0100    0.0100    0.0100    0.0100    0.0100
    0.0100    0.0100    0.0100    0.0100    0.0100    0.0100    0.0100    0.0100
    0.0100    0.0100    0.0100    0.0100    0.0100    0.0100    0.0100    0.0100
    0.0100    0.0100    0.0100    0.0100    0.0100    0.0100    0.0100    0.0100
    0.0100    0.0100    0.0100    0.0100    0.0100    0.0100    0.0100    0.0100
    0.0100    0.0100    0.0100    0.0100    0.0100    0.0100    0.0100    0.0100
    0.0100    0.0100    0.0100    0.0100    0.0100    0.0100    0.0100    0.0100
    0.0100    0.0100    0.0100    0.0100    0.0100    0.0100    0.0100    0.0100
    0.0100    0.0100    0.0100    0.0100    0.0100    0.0100    0.0100    0.0100
    0.0100    0.0100    0.0100    0.0100    0.0100    0.0100    0.0100    0.0100
    0.0100    0.0100    0.0100    0.0100    0.0100    0.0100    0.0100    0.0100
    0.0100    0.0100    0.0100    0.0100    0.0100    0.0100    0.0100    0.0100
    0.0100    0.0100    0.0100    0.0100    0.0100    0.0100    0.0100    0.0100
    0.0100    0.0100    0.0100    0.0100    0.0100    0.0100    0.0100    0.0100
    0.0100    0.0100    0.0100    0.0100    0.0100    0.0100    0.0100    0.0100
    0.0100    0.0100    0.0100    0.0100    0.0100    0.0100    0.0100    0.0100
    0.0100    0.0100    0.0100    0.0100    0.0100    0.0100    0.0100    0.0100
    0.0100    0.0100    0.0100    0.0100    0.0100    0.0100    0.0100    0.0100
    0.0100    0.0100    0.0100    0.0100    0.0100    0.0100    0.0100    0.0100
    0.0100    0.0100    0.0100    0.0100    0.0100    0.0100    0.0100    0.0100
    0.0100    0.0100    0.0100    0.0100    0.0100    0.0100    0.0100    0.0100
    0.0100    0.0100    0.0100    0.0100    0.0100    0.0100    0.0100    0.0100
    0.0100    0.0100    0.0100    0.0100    0.0100    0.0100    0.0100    0.0100
    0.0100    0.0100    0.0100    0.0100    0.0100    0.0100    0.0100    0.0100
    0.0100    0.0100    0.0100    0.0100    0.0100    0.0100    0.0100    0.0100
    0.0100    0.0100    0.0100    0.0100    0.0100    0.0100    0.0100    0.0100
    0.0100    0.0100    0.0100    0.0100    0.0100    0.0100    0.0100    0.0100
    0.0100    0.0100    0.0100    0.0100    0.0100    0.0100    0.0100    0.0100
    0.0100    0.0100    0.0100    0.0100    0.0100    0.0100    0.0100    0.0100
    0.0100    0.0100    0.0100    0.0100    0.0100    0.0100    0.0100    0.0100
    0.0100    0.0100    0.0100    0.0100    0.0100    0.0100    0.0100    0.0100
    0.0100    0.0100    0.0100    0.0100    0.0100    0.0100    0.0100    0.0100
    0.0100    0.0100    0.0100    0.0100    0.0100    0.0100    0.0100    0.0100
    0.0100    0.0100    0.0100    0.0100    0.0100    0.0100    0.0100    0.0100
    0.0100    0.0100    0.0100    0.0100    0.0100    0.0100    0.0100    0.0100
    0.0100    0.0100    0.0100    0.0100    0.0100    0.0100    0.0100    0.0100
    0.0100    0.0100    0.0100    0.0100    0.0100    0.0100    0.0100    0.0100
    0.0100    0.0100    0.0100    0.0100    0.0100    0.0100    0.0100    0.0100
    0.0100    0.0100    0.0100    0.0100    0.0100    0.0100    0.0100    0.0100
    0.0100    0.0100    0.0100    0.0100    0.0100    0.0100    0.0100    0.0100
    0.0100    0.0100    0.0100    0.0100    0.0100    0.0100    0.0100    0.0100
    0.0100    0.0100    0.0100    0.0100    0.0100    0.0100    0.0100    0.0100
    0.0100    0.0100    0.0100    0.0100    0.0100    0.0100    0.0100    0.0100
    0.0100    0.0100    0.0100    0.0100    0.0100    0.0100    0.0100    0.0100
    0.0100    0.0100    0.0100    0.0100    0.0100    0.0100    0.0100    0.0100
    0.0100    0.0100    0.0100    0.0100    0.0100    0.0100    0.0100    0.0100
    0.0100    0.0100    0.0100    0.0100    0.0100    0.0100    0.0100    0.0100
    0.0100    0.0100    0.0100    0.0100    0.0100    0.0100    0.0100    0.0100
    0.0100    0.0100    0.0100    0.0100    0.0100    0.0100    0.0100    0.0100
    0.0100    0.0100    0.0100    0.0100    0.0100    0.0100    0.0100    0.0100
    0.0100    0.0100    0.0100    0.0100    0.0100    0.0100    0.0100    0.0100
    0.0100    0.0100    0.0100    0.0100    0.0100    0.0100    0.0100    0.0100
    0.0100    0.0100    0.0100    0.0100    0.0100    0.0100    0.0100    0.0100
    0.0100    0.0100    0.0100    0.0100    0.0100    0.0100    0.0100    0.0100
    0.0100    0.0100    0.0100    0.0100    0.0100    0.0100    0.0100    0.0100
    0.0100    0.0100    0.0100    0.0100    0.0100    0.0100    0.0100    0.0100
    0.0100    0.0100    0.0100    0.0100    0.0100    0.0100    0.0100    0.0100
    0.0100    0.0100    0.0100    0.0100    0.0100    0.0100    0.0100    0.0100
    0.0100    0.0100    0.0100    0.0100    0.0100    0.0100    0.0100    0.0100
    0.0100    0.0100    0.0100    0.0100    0.0100    0.0100    0.0100    0.0100
    0.0100    0.0100    0.0100    0.0100    0.0100    0.0100    0.0100    0.0100
    0.0100    0.0100    0.0100    0.0100    0.0100    0.0100    0.0100    0.0100
    0.0100    0.0100    0.0100    0.0100    0.0100    0.0100    0.0100    0.0100
    0.0100    0.0100    0.0100    0.0100    0.0100    0.0100    0.0100    0.0100
    0.0100    0.0100    0.0100    0.0100    0.0100    0.0100    0.0100    0.0100
    0.0100    0.0100    0.0100    0.0100    0.0100    0.0100    0.0100    0.0100
    0.0100    0.0100    0.0100    0.0100    0.0100    0.0100    0.0100    0.0100
    0.0100    0.0100
   </PP_RAB>
 </PP_MESH>
  <PP_LOCAL type="real"  size=" 602" columns="4">
   -1.0881249552E+01   -3.2238081726E+01   -3.6597032095E+01   -3.3194212281E+01
   -3.1265733905E+01   -3.1817752110E+01   -3.2005160322E+01   -3.2038094655E+01
   -3.2028818703E+01   -3.2005007600E+01   -3.1973476570E+01   -3.1936227226E+01
   -3.1894128903E+01   -3.1847786401E+01   -3.1797740665E+01   -3.1744509059E+01
   -3.1688591848E+01   -3.1630475368E+01   -3.1570637071E+01   -3.1509551642E+01
   -3.1447696518E+01   -3.1385555509E+01   -3.1323619634E+01   -3.1262384616E+01
   -3.1202344652E+01   -3.1143982269E+01   -3.1087754238E+01   -3.1034073772E+01
   -3.0983289577E+01   -3.0935662569E+01   -3.0891341598E+01   -3.0850339861E+01
   -3.0812514095E+01   -3.0777548883E+01   -3.0744947336E+01   -3.0714032821E+01
   -3.0683958896E+01   -3.0653733252E+01   -3.0622250963E+01   -3.0588338234E+01
   -3.0550803617E+01   -3.0508492926E+01   -3.0460344461E+01   -3.0405440361E+01
   -3.0343050261E+01   -3.0272664066E+01   -3.0194011557E+01   -3.0107067647E+01
   -3.0012043098E+01   -2.9909362685E+01   -2.9799633363E+01   -2.9683601343E+01
   -2.9562107422E+01   -2.9436041740E+01   -2.9306298767E+01   -2.9173740330E+01
   -2.9039163998E+01   -2.8903283291E+01   -2.8766712197E+01   -2.8629963193E+01
   -2.8493447445E+01   -2.8357481971E+01   -2.8222302593E+01   -2.8088071573E+01
   -2.7954894241E+01   -2.7822829527E+01   -2.7691899377E+01   -2.7562099612E+01
   -2.7433406760E+01   -2.7305783565E+01   -2.7179183588E+01   -2.7053554405E+01
   -2.6928839570E+01   -2.6804979859E+01   -2.6681913835E+01   -2.6559577955E+01
   -2.6437906362E+01   -2.6316830416E+01   -2.6196278124E+01   -2.6076173549E+01
   -2.5956436271E+01   -2.5836980967E+01   -2.5717717182E+01   -2.5598549331E+01
   -2.5479376988E+01   -2.5360095472E+01   -2.5240596771E+01   -2.5120770773E+01
   -2.5000506813E+01   -2.4879695476E+01   -2.4758230606E+01   -2.4636011450E+01
   -2.4512944840E+01   -2.4388947319E+01   -2.4263947121E+01   -2.4137885888E+01
   -2.4010720070E+01   -2.3882421471E+01   -2.3752978960E+01   -2.3622398003E+01
   -2.3490700051E+01   -2.3357921938E+01   -2.3224114731E+01   -2.3089342083E+01
   -2.2953678989E+01   -2.2817210436E+01   -2.2680028253E+01   -2.2542229749E+01
   -2.2403915928E+01   -2.2265190104E+01   -2.2126155905E+01   -2.1986915916E+01
   -2.1847570844E+01   -2.1708218931E+01   -2.1568953846E+01   -2.1429865397E+01
   -2.1291039264E+01   -2.1152556405E+01   -2.1014492000E+01   -2.0876917066E+01
   -2.0739898810E+01   -2.0603498355E+01   -2.0467773082E+01   -2.0332777114E+01
   -2.0198559955E+01   -2.0065167365E+01   -1.9932642742E+01   -1.9801025899E+01
   -1.9670353387E+01   -1.9540660106E+01   -1.9411977870E+01   -1.9284335911E+01
   -1.9157762301E+01   -1.9032282007E+01   -1.8907918161E+01   -1.8784693036E+01
   -1.8662625288E+01   -1.8541732895E+01   -1.8422031897E+01   -1.8303535546E+01
   -1.8186256764E+01   -1.8070204972E+01   -1.7955388544E+01   -1.7841814156E+01
   -1.7729485202E+01   -1.7618405241E+01   -1.7508573355E+01   -1.7399988510E+01
   -1.7292646768E+01   -1.7186542060E+01   -1.7081667480E+01   -1.6978012188E+01
   -1.6875566227E+01   -1.6774314853E+01   -1.6674244289E+01   -1.6575337287E+01
   -1.6477576506E+01   -1.6380942594E+01   -1.6285415479E+01   -1.6190974151E+01
   -1.6097596791E+01   -1.6005261244E+01   -1.5913944957E+01   -1.5823625201E+01
   -1.5734279632E+01   -1.5645885548E+01   -1.5558421568E+01   -1.5471865605E+01
   -1.5386197730E+01   -1.5301396985E+01   -1.5217445065E+01   -1.5134322518E+01
   -1.5052012520E+01   -1.4970497204E+01   -1.4889761019E+01   -1.4809786953E+01
   -1.4730562056E+01   -1.4652071853E+01   -1.4574306443E+01   -1.4497255888E+01
   -1.4420912456E+01   -1.4345269665E+01   -1.4270321314E+01   -1.4196062893E+01
   -1.4122489295E+01   -1.4049596280E+01   -1.3977379592E+01   -1.3905833712E+01
   -1.3834954464E+01   -1.3764734566E+01   -1.3695168209E+01   -1.3626246881E+01
   -1.3557961545E+01   -1.3490302901E+01   -1.3423257922E+01   -1.3356816504E+01
   -1.3290962666E+01   -1.3225683269E+01   -1.3160962219E+01   -1.3096783226E+01
   -1.3033130181E+01   -1.2969986036E+01   -1.2907333458E+01   -1.2845157186E+01
   -1.2783440153E+01   -1.2722168047E+01   -1.2661327931E+01   -1.2600904338E+01
   -1.2540890212E+01   -1.2481272966E+01   -1.2422046719E+01   -1.2363206877E+01
   -1.2304745746E+01   -1.2246665839E+01   -1.2188963726E+01   -1.2131641591E+01
   -1.2074703648E+01   -1.2018150567E+01   -1.1961990368E+01   -1.1906227911E+01
   -1.1850869289E+01   -1.1795922234E+01   -1.1741393648E+01   -1.1687290522E+01
   -1.1633620070E+01   -1.1580389770E+01   -1.1527604581E+01   -1.1475271489E+01
   -1.1423395469E+01   -1.1371979497E+01   -1.1321029655E+01   -1.1270546824E+01
   -1.1220532307E+01   -1.1170990273E+01   -1.1121917653E+01   -1.1073314616E+01
   -1.1025181367E+01   -1.0977513183E+01   -1.0930308391E+01   -1.0883563760E+01
   -1.0837273316E+01   -1.0791433567E+01   -1.0746038763E+01   -1.0701082018E+01
   -1.0656558185E+01   -1.0612460003E+01   -1.0568779987E+01   -1.0525511624E+01
   -1.0482647052E+01   -1.0440178501E+01   -1.0398098479E+01   -1.0356399226E+01
   -1.0315073021E+01   -1.0274111834E+01   -1.0233508467E+01   -1.0193255584E+01
   -1.0153345080E+01   -1.0113770544E+01   -1.0074525347E+01   -1.0035601756E+01
   -9.9969941657E+00   -9.9586969316E+00   -9.9207030996E+00   -9.8830077380E+00
   -9.8456063944E+00   -9.8084932584E+00   -9.7716638468E+00   -9.7351149111E+00
   -9.6988420178E+00   -9.6628410068E+00   -9.6271093594E+00   -9.5916437287E+00
   -9.5564405751E+00   -9.5214971351E+00   -9.4868103324E+00   -9.4523769105E+00
   -9.4181940514E+00   -9.3842588303E+00   -9.3505681015E+00   -9.3171190726E+00
   -9.2839091169E+00   -9.2509353927E+00   -9.2181950379E+00   -9.1856856555E+00
   -9.1534046384E+00   -9.1213491330E+00   -9.0895168808E+00   -9.0579054641E+00
   -9.0265122943E+00   -8.9953349768E+00   -8.9643713593E+00   -8.9336191324E+00
   -8.9030757479E+00   -8.8727393019E+00   -8.8426076349E+00   -8.8126784432E+00
   -8.7829496555E+00   -8.7534193720E+00   -8.7240855672E+00   -8.6949459736E+00
   -8.6659989310E+00   -8.6372425383E+00   -8.6086747914E+00   -8.5802938020E+00
   -8.5520979208E+00   -8.5240853610E+00   -8.4962541612E+00   -8.4686027466E+00
   -8.4411294770E+00   -8.4138326388E+00   -8.3867104231E+00   -8.3597614029E+00
   -8.3329839852E+00   -8.3063764977E+00   -8.2799373594E+00   -8.2536651568E+00
   -8.2275583758E+00   -8.2016153958E+00   -8.1758348050E+00   -8.1502152066E+00
   -8.1247551542E+00   -8.0994530843E+00   -8.0743077020E+00   -8.0493176328E+00
   -8.0244814810E+00   -7.9997977589E+00   -7.9752652302E+00   -7.9508825530E+00
   -7.9266483685E+00   -7.9025612747E+00   -7.8786200533E+00   -7.8548234032E+00
   -7.8311699980E+00   -7.8076584887E+00   -7.7842876987E+00   -7.7610563691E+00
   -7.7379632027E+00   -7.7150068793E+00   -7.6921863121E+00   -7.6695003008E+00
   -7.6469476097E+00   -7.6245269636E+00   -7.6022373443E+00   -7.5800776112E+00
   -7.5580466032E+00   -7.5361430870E+00   -7.5143660937E+00   -7.4927145346E+00
   -7.4711873189E+00   -7.4497832125E+00   -7.4285013300E+00   -7.4073406383E+00
   -7.3863001043E+00   -7.3653785846E+00   -7.3445751725E+00   -7.3238889033E+00
   -7.3033187905E+00   -7.2828637641E+00   -7.2625228949E+00   -7.2422952953E+00
   -7.2221800247E+00   -7.2021760975E+00   -7.1822825446E+00   -7.1624985561E+00
   -7.1428232348E+00   -7.1232556826E+00   -7.1037948798E+00   -7.0844400941E+00
   -7.0651904698E+00   -7.0460451513E+00   -7.0270032041E+00   -7.0080638285E+00
   -6.9892262559E+00   -6.9704896704E+00   -6.9518532314E+00   -6.9333160571E+00
   -6.9148774665E+00   -6.8965366815E+00   -6.8782929240E+00   -6.8601453309E+00
   -6.8420931987E+00   -6.8241358205E+00   -6.8062724544E+00   -6.7885023377E+00
   -6.7708246585E+00   -6.7532388047E+00   -6.7357440686E+00   -6.7183397426E+00
   -6.7010250526E+00   -6.6837993266E+00   -6.6666619387E+00   -6.6496122141E+00
   -6.6326494780E+00   -6.6157729535E+00   -6.5989820878E+00   -6.5822762458E+00
   -6.5656547838E+00   -6.5491170335E+00   -6.5326622980E+00   -6.5162900478E+00
   -6.4999996692E+00   -6.4837905486E+00   -6.4676620223E+00   -6.4516134812E+00
   -6.4356443980E+00   -6.4197541875E+00   -6.4039422644E+00   -6.3882079763E+00
   -6.3725507844E+00   -6.3569701685E+00   -6.3414655704E+00   -6.3260364322E+00
   -6.3106821179E+00   -6.2954021425E+00   -6.2801959981E+00   -6.2650631527E+00
   -6.2500030740E+00   -6.2350151477E+00   -6.2200989269E+00   -6.2052539213E+00
   -6.1904796235E+00   -6.1757755261E+00   -6.1611410408E+00   -6.1465757443E+00
   -6.1320791688E+00   -6.1176508306E+00   -6.1032902459E+00   -6.0889968564E+00
   -6.0747702491E+00   -6.0606099834E+00   -6.0465155981E+00   -6.0324866317E+00
   -6.0185225607E+00   -6.0046229688E+00   -5.9907874474E+00   -5.9770155564E+00
   -5.9633068561E+00   -5.9496608614E+00   -5.9360771409E+00   -5.9225553216E+00
   -5.9090949841E+00   -5.8956957090E+00   -5.8823570538E+00   -5.8690785609E+00
   -5.8558598962E+00   -5.8427006598E+00   -5.8296004519E+00   -5.8165588725E+00
   -5.8035754401E+00   -5.7906498497E+00   -5.7777817242E+00   -5.7649706822E+00
   -5.7522163424E+00   -5.7395182733E+00   -5.7268761188E+00   -5.7142895506E+00
   -5.7017582050E+00   -5.6892817186E+00   -5.6768597142E+00   -5.6644917754E+00
   -5.6521776244E+00   -5.6399169145E+00   -5.6277092992E+00   -5.6155544318E+00
   -5.6034519117E+00   -5.5914014294E+00   -5.5794026818E+00   -5.5674553383E+00
   -5.5555590685E+00   -5.5437135333E+00   -5.5319183424E+00   -5.5201732504E+00
   -5.5084779423E+00   -5.4968321029E+00   -5.4852354172E+00   -5.4736875327E+00
   -5.4621881380E+00   -5.4507369731E+00   -5.4393337375E+00   -5.4279781309E+00
   -5.4166698529E+00   -5.4054085439E+00   -5.3941939569E+00   -5.3830258218E+00
   -5.3719038523E+00   -5.3608277619E+00   -5.3497972625E+00   -5.3388119985E+00
   -5.3278717678E+00   -5.3169762971E+00   -5.3061253135E+00   -5.2953185439E+00
   -5.2845557011E+00   -5.2738364705E+00   -5.2631606494E+00   -5.2525279776E+00
   -5.2419381946E+00   -5.2313910401E+00   -5.2208862331E+00   -5.2104234872E+00
   -5.2000026042E+00   -5.1896233356E+00   -5.1792854334E+00   -5.1689886492E+00
   -5.1587327129E+00   -5.1485173547E+00   -5.1383423848E+00   -5.1282075666E+00
   -5.1181126634E+00   -5.1080574386E+00   -5.0980416369E+00   -5.0880649943E+00
   -5.0781273338E+00   -5.0682284297E+00   -5.0583680565E+00   -5.0485459885E+00
   -5.0387619897E+00   -5.0290157913E+00   -5.0193072330E+00   -5.0096360998E+00
   -5.0000021766E+00   -4.9904052480E+00   -4.9808450992E+00   -4.9713214536E+00
   -4.9618341647E+00   -4.9523830296E+00   -4.9429678430E+00   -4.9335884000E+00
   -4.9242444954E+00   -4.9149358802E+00   -4.9056623808E+00   -4.8964238206E+00
   -4.8872200040E+00   -4.8780507353E+00   -4.8689158192E+00   -4.8598150377E+00
   -4.8507481817E+00   -4.8417151037E+00   -4.8327156173E+00   -4.8237495360E+00
   -4.8148166735E+00   -4.8059168432E+00   -4.7970498028E+00   -4.7882154266E+00
   -4.7794135400E+00   -4.7706439654E+00   -4.7619065248E+00   -4.7532010407E+00
   -4.7445273086E+00   -4.7358851491E+00   -4.7272744245E+00   -4.7186949654E+00
   -4.7101466024E+00   -4.7016291660E+00   -4.6931424866E+00   -4.6846863449E+00
   -4.6762606215E+00   -4.6678651614E+00   -4.6594998032E+00   -4.6511643851E+00
   -4.6428587457E+00   -4.6345827103E+00   -4.6263360896E+00   -4.6181187718E+00
   -4.6099306031E+00   -4.6017714293E+00   -4.5936410964E+00   -4.5855394504E+00
   -4.5774663096E+00   -4.5694215241E+00   -4.5614049739E+00   -4.5534165121E+00
   -4.5454559920E+00   -4.5375232666E+00   -4.5296181891E+00   -4.5217405757E+00
   -4.5138903047E+00   -4.5060672525E+00   -4.4982712789E+00   -4.4905022439E+00
   -4.4827600076E+00   -4.4750444298E+00   -4.4673553292E+00   -4.4596926019E+00
   -4.4520561247E+00   -4.4444457641E+00   -4.4368613867E+00   -4.4293028589E+00
   -4.4217700472E+00   -4.4142627763E+00   -4.4067809509E+00   -4.3993244522E+00
   -4.3918931531E+00   -4.3844869263E+00   -4.3771056445E+00   -4.3697491805E+00
   -4.3624173688E+00   -4.3551101133E+00   -4.3478273041E+00   -4.3405688197E+00
   -4.3333345388E+00   -4.3261243401E+00
  </PP_LOCAL>
 <PP_NONLOCAL>
   <PP_BETA.1
       type="real"
       size=" 602"
       columns="4"
       index="1"
       angular_momentum="0"
       cutoff_radius_index=" 348"
       cutoff_radius="    3.4700000000E+00" >
    0.0000000000E+00   -1.4064845192E-02   -2.8136095880E-02   -4.2220131434E-02
   -5.6323279023E-02   -7.0451787641E-02   -8.4611802273E-02   -9.8809338272E-02
   -1.1305025596E-01   -1.2734023557E-01   -1.4168475245E-01   -1.5608905275E-01
   -1.7055812952E-01   -1.8509669924E-01   -1.9970917897E-01   -2.1439966403E-01
   -2.2917190634E-01   -2.4402929340E-01   -2.5897482803E-01   -2.7401110884E-01
   -2.8914031153E-01   -3.0436417106E-01   -3.1968396467E-01   -3.3510049584E-01
   -3.5061407932E-01   -3.6622452702E-01   -3.8193113510E-01   -3.9773267202E-01
   -4.1362736786E-01   -4.2961290470E-01   -4.4568640817E-01   -4.6184444033E-01
   -4.7808299372E-01   -4.9439748677E-01   -5.1078276029E-01   -5.2723307576E-01
   -5.4374211430E-01   -5.6030297773E-01   -5.7690819045E-01   -5.9354970301E-01
   -6.1021889699E-01   -6.2690659141E-01   -6.4360305039E-01   -6.6029799240E-01
   -6.7698060088E-01   -6.9363953628E-01   -7.1026294957E-01   -7.2683849714E-01
   -7.4335335700E-01   -7.5979424634E-01   -7.7614744137E-01   -7.9239879708E-01
   -8.0853376777E-01   -8.2453743356E-01   -8.4039452093E-01   -8.5608942998E-01
   -8.7160626223E-01   -8.8692884494E-01   -9.0204076537E-01   -9.1692539517E-01
   -9.3156592539E-01   -9.4594539907E-01   -9.6004673525E-01   -9.7385277958E-01
   -9.8734632287E-01   -1.0005101384E+00   -1.0133270313E+00   -1.0257798599E+00
   -1.0378515733E+00   -1.0495252572E+00   -1.0607841699E+00   -1.0716117740E+00
   -1.0819917767E+00   -1.0919081648E+00   -1.1013452498E+00   -1.1102877048E+00
   -1.1187205959E+00   -1.1266294222E+00   -1.1340001525E+00   -1.1408192618E+00
   -1.1470737665E+00   -1.1527512598E+00   -1.1578399457E+00   -1.1623286720E+00
   -1.1662069627E+00   -1.1694650491E+00   -1.1720938999E+00   -1.1740852497E+00
   -1.1754316268E+00   -1.1761263785E+00   -1.1761636962E+00   -1.1755386379E+00