<UPF version="2.0.1">
  <PP_INFO>

 This pseudopotential file has been produced using the code
 ONCVPSP  (Optimized Norm-Conservinng Vanderbilt PSeudopotential)
 scalar-relativistic version 2.1.1, 03/26/2014 by D. R. Hamann
 The code is available through a link at URL www.mat-simresearch.com.
 Documentation with the package provides a full discription of the
 input data below.


 While it is not required under the terms of the GNU GPL, it is
 suggested that you cite D. R. Hamann, Phys. Rev. B 88, 085117 (2013)
 in any publication using these pseudopotentials.


 Copyright 2015 The Regents of the University of California
 
 This work is licensed under the Creative Commons Attribution-ShareAlike 
 4.0 International License. To view a copy of this license, visit 
 http://creativecommons.org/licenses/by-sa/4.0/ or send a letter to 
 Creative Commons, PO Box 1866, Mountain View, CA 94042, USA.
 
 This pseudopotential is part of the Schlipf-Gygi norm-conserving 
 pseudopotential library. Its construction parameters were tuned to 
 reproduce materials of a training set with very high accuracy and 
 should be suitable as a general purpose pseudopotential to treat a 
 variety of different compounds. For details of the construction and 
 testing of the pseudopotential please refer to:
 
 [insert reference to paper here]
 
 We kindly ask that you include this reference in all publications 
 associated to this pseudopotential.


    <PP_INPUTFILE>
# ATOM AND REFERENCE CONFIGURATION
# atsym  z    nc    nv    iexc   psfile
  K 19.00     3     3     4      upf
#
#   n    l    f        energy (Ha)
    1    0    2.00
    2    0    2.00
    2    1    6.00
    3    0    2.00
    3    1    6.00
    4    0    1.00
#
# PSEUDOPOTENTIAL AND OPTIMIZATION
# lmax
    2
#
#   l,   rc,     ep,   ncon, nbas, qcut
    0   2.17031  -1.29884    5    8   5.88121
    1   2.33134  -0.69139    5    8   5.98033
    2   2.35932   0.21071    5    8   6.69467
#
# LOCAL POTENTIAL
# lloc, lpopt,  rc(5),   dvloc0
    4    5   2.06919      0.00000
#
# VANDERBILT-KLEINMAN-BYLANDER PROJECTORs
# l, nproj, debl
    0    2   1.21361
    1    2   1.74240
    2    2   1.72705
#
# MODEL CORE CHARGE
# icmod, fcfact
    0   0.00000
#
# LOG DERIVATIVE ANALYSIS
# epsh1, epsh2, depsh
   -5.00    3.00    0.02
#
# OUTPUT GRID
# rlmax, drl
    6.00    0.01
#
# TEST CONFIGURATIONS
# ncnf
    0
# nvcnf
#   n    l    f
    </PP_INPUTFILE>
  </PP_INFO>
  <!--                               -->
  <!-- END OF HUMAN READABLE SECTION -->
  <!--                               -->
    <PP_HEADER
       generated="Generated using ONCVPSP code by D. R. Hamann"
       author="Martin Schlipf and Francois Gygi"
       date="150105"
       comment=""
       element="K "
       pseudo_type="NC"
       relativistic="scalar"
       is_ultrasoft="F"
       is_paw="F"
       is_coulomb="F"
       has_so="F"
       has_wfc="F"
       has_gipaw="F"
       core_correction="F"
       functional="PBE"
       z_valence="    9.00"
       total_psenergy="  -2.83761768407E+01"
       rho_cutoff="   6.01000000000E+00"
       l_max="2"
       l_local="-1"
       mesh_size="   602"
       number_of_wfc="0"
       number_of_proj="6"/>
 <PP_MESH>
   <PP_R type="real"  size=" 602" columns="8">
    0.0000    0.0100    0.0200    0.0300    0.0400    0.0500    0.0600    0.0700
    0.0800    0.0900    0.1000    0.1100    0.1200    0.1300    0.1400    0.1500
    0.1600    0.1700    0.1800    0.1900    0.2000    0.2100    0.2200    0.2300
    0.2400    0.2500    0.2600    0.2700    0.2800    0.2900    0.3000    0.3100
    0.3200    0.3300    0.3400    0.3500    0.3600    0.3700    0.3800    0.3900
    0.4000    0.4100    0.4200    0.4300    0.4400    0.4500    0.4600    0.4700
    0.4800    0.4900    0.5000    0.5100    0.5200    0.5300    0.5400    0.5500
    0.5600    0.5700    0.5800    0.5900    0.6000    0.6100    0.6200    0.6300
    0.6400    0.6500    0.6600    0.6700    0.6800    0.6900    0.7000    0.7100
    0.7200    0.7300    0.7400    0.7500    0.7600    0.7700    0.7800    0.7900
    0.8000    0.8100    0.8200    0.8300    0.8400    0.8500    0.8600    0.8700
    0.8800    0.8900    0.9000    0.9100    0.9200    0.9300    0.9400    0.9500
    0.9600    0.9700    0.9800    0.9900    1.0000    1.0100    1.0200    1.0300
    1.0400    1.0500    1.0600    1.0700    1.0800    1.0900    1.1000    1.1100
    1.1200    1.1300    1.1400    1.1500    1.1600    1.1700    1.1800    1.1900
    1.2000    1.2100    1.2200    1.2300    1.2400    1.2500    1.2600    1.2700
    1.2800    1.2900    1.3000    1.3100    1.3200    1.3300    1.3400    1.3500
    1.3600    1.3700    1.3800    1.3900    1.4000    1.4100    1.4200    1.4300
    1.4400    1.4500    1.4600    1.4700    1.4800    1.4900    1.5000    1.5100
    1.5200    1.5300    1.5400    1.5500    1.5600    1.5700    1.5800    1.5900
    1.6000    1.6100    1.6200    1.6300    1.6400    1.6500    1.6600    1.6700
    1.6800    1.6900    1.7000    1.7100    1.7200    1.7300    1.7400    1.7500
    1.7600    1.7700    1.7800    1.7900    1.8000    1.8100    1.8200    1.8300
    1.8400    1.8500    1.8600    1.8700    1.8800    1.8900    1.9000    1.9100
    1.9200    1.9300    1.9400    1.9500    1.9600    1.9700    1.9800    1.9900
    2.0000    2.0100    2.0200    2.0300    2.0400    2.0500    2.0600    2.0700
    2.0800    2.0900    2.1000    2.1100    2.1200    2.1300    2.1400    2.1500
    2.1600    2.1700    2.1800    2.1900    2.2000    2.2100    2.2200    2.2300
    2.2400    2.2500    2.2600    2.2700    2.2800    2.2900    2.3000    2.3100
    2.3200    2.3300    2.3400    2.3500    2.3600    2.3700    2.3800    2.3900
    2.4000    2.4100    2.4200    2.4300    2.4400    2.4500    2.4600    2.4700
    2.4800    2.4900    2.5000    2.5100    2.5200    2.5300    2.5400    2.5500
    2.5600    2.5700    2.5800    2.5900    2.6000    2.6100    2.6200    2.6300
    2.6400    2.6500    2.6600    2.6700    2.6800    2.6900    2.7000    2.7100
    2.7200    2.7300    2.7400    2.7500    2.7600    2.7700    2.7800    2.7900
    2.8000    2.8100    2.8200    2.8300    2.8400    2.8500    2.8600    2.8700
    2.8800    2.8900    2.9000    2.9100    2.9200    2.9300    2.9400    2.9500
    2.9600    2.9700    2.9800    2.9900    3.0000    3.0100    3.0200    3.0300
    3.0400    3.0500    3.0600    3.0700    3.0800    3.0900    3.1000    3.1100
    3.1200    3.1300    3.1400    3.1500    3.1600    3.1700    3.1800    3.1900
    3.2000    3.2100    3.2200    3.2300    3.2400    3.2500    3.2600    3.2700
    3.2800    3.2900    3.3000    3.3100    3.3200    3.3300    3.3400    3.3500
    3.3600    3.3700    3.3800    3.3900    3.4000    3.4100    3.4200    3.4300
    3.4400    3.4500    3.4600    3.4700    3.4800    3.4900    3.5000    3.5100
    3.5200    3.5300    3.5400    3.5500    3.5600    3.5700    3.5800    3.5900
    3.6000    3.6100    3.6200    3.6300    3.6400    3.6500    3.6600    3.6700
    3.6800    3.6900    3.7000    3.7100    3.7200    3.7300    3.7400    3.7500
    3.7600    3.7700    3.7800    3.7900    3.8000    3.8100    3.8200    3.8300
    3.8400    3.8500    3.8600    3.8700    3.8800    3.8900    3.9000    3.9100
    3.9200    3.9300    3.9400    3.9500    3.9600    3.9700    3.9800    3.9900
    4.0000    4.0100    4.0200    4.0300    4.0400    4.0500    4.0600    4.0700
    4.0800    4.0900    4.1000    4.1100    4.1200    4.1300    4.1400    4.1500
    4.1600    4.1700    4.1800    4.1900    4.2000    4.2100    4.2200    4.2300
    4.2400    4.2500    4.2600    4.2700    4.2800    4.2900    4.3000    4.3100
    4.3200    4.3300    4.3400    4.3500    4.3600    4.3700    4.3800    4.3900
    4.4000    4.4100    4.4200    4.4300    4.4400    4.4500    4.4600    4.4700
    4.4800    4.4900    4.5000    4.5100    4.5200    4.5300    4.5400    4.5500
    4.5600    4.5700    4.5800    4.5900    4.6000    4.6100    4.6200    4.6300
    4.6400    4.6500    4.6600    4.6700    4.6800    4.6900    4.7000    4.7100
    4.7200    4.7300    4.7400    4.7500    4.7600    4.7700    4.7800    4.7900
    4.8000    4.8100    4.8200    4.8300    4.8400    4.8500    4.8600    4.8700
    4.8800    4.8900    4.9000    4.9100    4.9200    4.9300    4.9400    4.9500
    4.9600    4.9700    4.9800    4.9900    5.0000    5.0100    5.0200    5.0300
    5.0400    5.0500    5.0600    5.0700    5.0800    5.0900    5.1000    5.1100
    5.1200    5.1300    5.1400    5.1500    5.1600    5.1700    5.1800    5.1900
    5.2000    5.2100    5.2200    5.2300    5.2400    5.2500    5.2600    5.2700
    5.2800    5.2900    5.3000    5.3100    5.3200    5.3300    5.3400    5.3500
    5.3600    5.3700    5.3800    5.3900    5.4000    5.4100    5.4200    5.4300
    5.4400    5.4500    5.4600    5.4700    5.4800    5.4900    5.5000    5.5100
    5.5200    5.5300    5.5400    5.5500    5.5600    5.5700    5.5800    5.5900
    5.6000    5.6100    5.6200    5.6300    5.6400    5.6500    5.6600    5.6700
    5.6800    5.6900    5.7000    5.7100    5.7200    5.7300    5.7400    5.7500
    5.7600    5.7700    5.7800    5.7900    5.8000    5.8100    5.8200    5.8300
    5.8400    5.8500    5.8600    5.8700    5.8800    5.8900    5.9000    5.9100
    5.9200    5.9300    5.9400    5.9500    5.9600    5.9700    5.9800    5.9900
    6.0000    6.0100
   </PP_R>
   <PP_RAB type="real"  size=" 602" columns="8">
    0.0100    0.0100    0.0100    0.0100    0.0100    0.0100    0.0100    0.0100
    0.0100    0.0100    0.0100    0.0100    0.0100    0.0100    0.0100    0.0100
    0.0100    0.0100    0.0100    0.0100    0.0100    0.0100    0.0100    0.0100
    0.0100    0.0100    0.0100    0.0100    0.0100    0.0100    0.0100    0.0100
    0.0100    0.0100    0.0100    0.0100    0.0100    0.0100    0.0100    0.0100
    0.0100    0.0100    0.0100    0.0100    0.0100    0.0100    0.0100    0.0100
    0.0100    0.0100    0.0100    0.0100    0.0100    0.0100    0.0100    0.0100
    0.0100    0.0100    0.0100    0.0100    0.0100    0.0100    0.0100    0.0100
    0.0100    0.0100    0.0100    0.0100    0.0100    0.0100    0.0100    0.0100
    0.0100    0.0100    0.0100    0.0100    0.0100    0.0100    0.0100    0.0100
    0.0100    0.0100    0.0100    0.0100    0.0100    0.0100    0.0100    0.0100
    0.0100    0.0100    0.0100    0.0100    0.0100    0.0100    0.0100    0.0100
    0.0100    0.0100    0.0100    0.0100    0.0100    0.0100    0.0100    0.0100
    0.0100    0.0100    0.0100    0.0100    0.0100    0.0100    0.0100    0.0100
    0.0100    0.0100    0.0100    0.0100    0.0100    0.0100    0.0100    0.0100
    0.0100    0.0100    0.0100    0.0100    0.0100    0.0100    0.0100    0.0100
    0.0100    0.0100    0.0100    0.0100    0.0100    0.0100    0.0100    0.0100
    0.0100    0.0100    0.0100    0.0100    0.0100    0.0100    0.0100    0.0100
    0.0100    0.0100    0.0100    0.0100    0.0100    0.0100    0.0100    0.0100
    0.0100    0.0100    0.0100    0.0100    0.0100    0.0100    0.0100    0.0100
    0.0100    0.0100    0.0100    0.0100    0.0100    0.0100    0.0100    0.0100
    0.0100    0.0100    0.0100    0.0100    0.0100    0.0100    0.0100    0.0100
    0.0100    0.0100    0.0100    0.0100    0.0100    0.0100    0.0100    0.0100
    0.0100    0.0100    0.0100    0.0100    0.0100    0.0100    0.0100    0.0100
    0.0100    0.0100    0.0100    0.0100    0.0100    0.0100    0.0100    0.0100
    0.0100    0.0100    0.0100    0.0100    0.0100    0.0100    0.0100    0.0100
    0.0100    0.0100    0.0100    0.0100    0.0100    0.0100    0.0100    0.0100
    0.0100    0.0100    0.0100    0.0100    0.0100    0.0100    0.0100    0.0100
    0.0100    0.0100    0.0100    0.0100    0.0100    0.0100    0.0100    0.0100
    0.0100    0.0100    0.0100    0.0100    0.0100    0.0100    0.0100    0.0100
    0.0100    0.0100    0.0100    0.0100    0.0100    0.0100    0.0100    0.0100
    0.0100    0.0100    0.0100    0.0100    0.0100    0.0100    0.0100    0.0100
    0.0100    0.0100    0.0100    0.0100    0.0100    0.0100    0.0100    0.0100
    0.0100    0.0100    0.0100    0.0100    0.0100    0.0100    0.0100    0.0100
    0.0100    0.0100    0.0100    0.0100    0.0100    0.0100    0.0100    0.0100
    0.0100    0.0100    0.0100    0.0100    0.0100    0.0100    0.0100    0.0100
    0.0100    0.0100    0.0100    0.0100    0.0100    0.0100    0.0100    0.0100
    0.0100    0.0100    0.0100    0.0100    0.0100    0.0100    0.0100    0.0100
    0.0100    0.0100    0.0100    0.0100    0.0100    0.0100    0.0100    0.0100
    0.0100    0.0100    0.0100    0.0100    0.0100    0.0100    0.0100    0.0100
    0.0100    0.0100    0.0100    0.0100    0.0100    0.0100    0.0100    0.0100
    0.0100    0.0100    0.0100    0.0100    0.0100    0.0100    0.0100    0.0100
    0.0100    0.0100    0.0100    0.0100    0.0100    0.0100    0.0100    0.0100
    0.0100    0.0100    0.0100    0.0100    0.0100    0.0100    0.0100    0.0100
    0.0100    0.0100    0.0100    0.0100    0.0100    0.0100    0.0100    0.0100
    0.0100    0.0100    0.0100    0.0100    0.0100    0.0100    0.0100    0.0100
    0.0100    0.0100    0.0100    0.0100    0.0100    0.0100    0.0100    0.0100
    0.0100    0.0100    0.0100    0.0100    0.0100    0.0100    0.0100    0.0100
    0.0100    0.0100    0.0100    0.0100    0.0100    0.0100    0.0100    0.0100
    0.0100    0.0100    0.0100    0.0100    0.0100    0.0100    0.0100    0.0100
    0.0100    0.0100    0.0100    0.0100    0.0100    0.0100    0.0100    0.0100
    0.0100    0.0100    0.0100    0.0100    0.0100    0.0100    0.0100    0.0100
    0.0100    0.0100    0.0100    0.0100    0.0100    0.0100    0.0100    0.0100
    0.0100    0.0100    0.0100    0.0100    0.0100    0.0100    0.0100    0.0100
    0.0100    0.0100    0.0100    0.0100    0.0100    0.0100    0.0100    0.0100
    0.0100    0.0100    0.0100    0.0100    0.0100    0.0100    0.0100    0.0100
    0.0100    0.0100    0.0100    0.0100    0.0100    0.0100    0.0100    0.0100
    0.0100    0.0100    0.0100    0.0100    0.0100    0.0100    0.0100    0.0100
    0.0100    0.0100    0.0100    0.0100    0.0100    0.0100    0.0100    0.0100
    0.0100    0.0100    0.0100    0.0100    0.0100    0.0100    0.0100    0.0100
    0.0100    0.0100    0.0100    0.0100    0.0100    0.0100    0.0100    0.0100
    0.0100    0.0100    0.0100    0.0100    0.0100    0.0100    0.0100    0.0100
    0.0100    0.0100    0.0100    0.0100    0.0100    0.0100    0.0100    0.0100
    0.0100    0.0100    0.0100    0.0100    0.0100    0.0100    0.0100    0.0100
    0.0100    0.0100    0.0100    0.0100    0.0100    0.0100    0.0100    0.0100
    0.0100    0.0100    0.0100    0.0100    0.0100    0.0100    0.0100    0.0100
    0.0100    0.0100    0.0100    0.0100    0.0100    0.0100    0.0100    0.0100
    0.0100    0.0100    0.0100    0.0100    0.0100    0.0100    0.0100    0.0100
    0.0100    0.0100    0.0100    0.0100    0.0100    0.0100    0.0100    0.0100
    0.0100    0.0100    0.0100    0.0100    0.0100    0.0100    0.0100    0.0100
    0.0100    0.0100    0.0100    0.0100    0.0100    0.0100    0.0100    0.0100
    0.0100    0.0100    0.0100    0.0100    0.0100    0.0100    0.0100    0.0100
    0.0100    0.0100    0.0100    0.0100    0.0100    0.0100    0.0100    0.0100
    0.0100    0.0100    0.0100    0.0100    0.0100    0.0100    0.0100    0.0100
    0.0100    0.0100    0.0100    0.0100    0.0100    0.0100    0.0100    0.0100
    0.0100    0.0100
   </PP_RAB>
 </PP_MESH>
  <PP_LOCAL type="real"  size=" 602" columns="4">
   -1.9914112218E+01   -1.9927472816E+01   -1.9971681982E+01   -2.0035676138E+01
   -2.0108391709E+01   -2.0179356006E+01   -2.0240707599E+01   -2.0287845816E+01
   -2.0319064424E+01   -2.0334727693E+01   -2.0336414797E+01   -2.0326242106E+01
   -2.0306411842E+01   -2.0278955311E+01   -2.0245615259E+01   -2.0207815510E+01
   -2.0166679205E+01   -2.0123069493E+01   -2.0077637239E+01   -2.0030866936E+01
   -1.9983116831E+01   -1.9934651871E+01   -1.9885669517E+01   -1.9836319281E+01
   -1.9786716998E+01   -1.9736954954E+01   -1.9687108852E+01   -1.9637242409E+01
   -1.9587410283E+01   -1.9537659848E+01   -1.9488032180E+01   -1.9438562562E+01
   -1.9389280697E+01   -1.9340210773E+01   -1.9291371479E+01   -1.9242775981E+01
   -1.9194431982E+01   -1.9146341747E+01   -1.9098502245E+01   -1.9050905292E+01
   -1.9003537733E+01   -1.8956381669E+01   -1.8909414709E+01   -1.8862610238E+01
   -1.8815937707E+01   -1.8769362934E+01   -1.8722848438E+01   -1.8676353765E+01
   -1.8629835841E+01   -1.8583249351E+01   -1.8536547132E+01   -1.8489680569E+01
   -1.8442600011E+01   -1.8395255225E+01   -1.8347595824E+01   -1.8299571737E+01
   -1.8251133638E+01   -1.8202233444E+01   -1.8152824682E+01   -1.8102863010E+01
   -1.8052306511E+01   -1.8001116130E+01   -1.7949256010E+01   -1.7896693646E+01
   -1.7843400335E+01   -1.7789351197E+01   -1.7734525264E+01   -1.7678905728E+01
   -1.7622479835E+01   -1.7565238837E+01   -1.7507177886E+01   -1.7448296009E+01
   -1.7388595858E+01   -1.7328083482E+01   -1.7266768102E+01   -1.7204661859E+01
   -1.7141779525E+01   -1.7078138234E+01   -1.7013757213E+01   -1.6948657451E+01
   -1.6882861444E+01   -1.6816392930E+01   -1.6749276636E+01   -1.6681538045E+01
   -1.6613203183E+01   -1.6544298423E+01   -1.6474850312E+01   -1.6404885419E+01
   -1.6334430202E+01   -1.6263510899E+01   -1.6192153427E+01   -1.6120383313E+01
   -1.6048225625E+01   -1.5975704939E+01   -1.5902845291E+01   -1.5829670145E+01
   -1.5756202398E+01   -1.5682464366E+01   -1.5608477785E+01   -1.5534263821E+01
   -1.5459843074E+01   -1.5385235622E+01   -1.5310460968E+01   -1.5235538108E+01
   -1.5160485548E+01   -1.5085321320E+01   -1.5010063011E+01   -1.4934727769E+01
   -1.4859332281E+01   -1.4783892856E+01   -1.4708425422E+01   -1.4632945571E+01
   -1.4557468467E+01   -1.4482008951E+01   -1.4406581543E+01   -1.4331200485E+01
   -1.4255879614E+01   -1.4180632497E+01   -1.4105472425E+01   -1.4030412403E+01
   -1.3955465076E+01   -1.3880642847E+01   -1.3805957902E+01   -1.3731422025E+01
   -1.3657046770E+01   -1.3582843490E+01   -1.3508823156E+01   -1.3434996485E+01
   -1.3361374017E+01   -1.3287965898E+01   -1.3214782029E+01   -1.3141832157E+01
   -1.3069125585E+01   -1.2996671432E+01   -1.2924478634E+01   -1.2852555672E+01
   -1.2780910927E+01   -1.2709552466E+01   -1.2638488019E+01   -1.2567725254E+01
   -1.2497271353E+01   -1.2427133401E+01   -1.2357318230E+01   -1.2287832304E+01
   -1.2218682090E+01   -1.2149873543E+01   -1.2081412612E+01   -1.2013304925E+01
   -1.1945555884E+01   -1.1878170810E+01   -1.1811154609E+01   -1.1744512269E+01
   -1.1678248307E+01   -1.1612367301E+01   -1.1546873495E+01   -1.1481771061E+01
   -1.1417063989E+01   -1.1352756087E+01   -1.1288851106E+01   -1.1225352530E+01
   -1.1162263883E+01   -1.1099588362E+01   -1.1037329276E+01   -1.0975489568E+01
   -1.0914072342E+01   -1.0853080320E+01   -1.0792516390E+01   -1.0732383084E+01
   -1.0672683088E+01   -1.0613418738E+01   -1.0554592535E+01   -1.0496206613E+01
   -1.0438263292E+01   -1.0380764493E+01   -1.0323712357E+01   -1.0267108581E+01
   -1.0210955099E+01   -1.0155253392E+01   -1.0100005149E+01   -1.0045211631E+01
   -9.9908742431E+00   -9.9369940213E+00   -9.8835720303E+00   -9.8306090883E+00
   -9.7781058476E+00   -9.7260629226E+00   -9.6744804681E+00   -9.6233589155E+00
   -9.5726978653E+00   -9.5224974814E+00   -9.4727569112E+00   -9.4234757714E+00
   -9.3746529715E+00   -9.3262873901E+00   -9.2783777717E+00   -9.2309221209E+00
   -9.1839190777E+00   -9.1373658389E+00   -9.0912604488E+00   -9.0455998316E+00
   -9.0003810186E+00   -8.9556009005E+00   -8.9112553414E+00   -8.8673411814E+00
   -8.8238534356E+00   -8.7807879643E+00   -8.7381398728E+00   -8.6959036759E+00
   -8.6540743801E+00   -8.6126462431E+00   -8.5716137039E+00   -8.5309713479E+00
   -8.4907138157E+00   -8.4508356119E+00   -8.4113316351E+00   -8.3721965516E+00
   -8.3334252374E+00   -8.2950127220E+00   -8.2569537624E+00   -8.2192436745E+00
   -8.1818775250E+00   -8.1448504747E+00   -8.1081580166E+00   -8.0717953362E+00
   -8.0357580355E+00   -8.0000417250E+00   -7.9646417761E+00   -7.9295541871E+00
   -7.8947746386E+00   -7.8602989234E+00   -7.8261232225E+00   -7.7922433733E+00
   -7.7586555981E+00   -7.7253562431E+00   -7.6923413547E+00   -7.6596075001E+00
   -7.6271511318E+00   -7.5949685332E+00   -7.5630564706E+00   -7.5314114842E+00
   -7.5000300993E+00   -7.4689092298E+00   -7.4380455569E+00   -7.4074358439E+00
   -7.3770771202E+00   -7.3469661978E+00   -7.3171000395E+00   -7.2874758000E+00
   -7.2580904257E+00   -7.2289410536E+00   -7.2000249614E+00   -7.1713392299E+00
   -7.1428811447E+00   -7.1146481070E+00   -7.0866373319E+00   -7.0588462297E+00
   -7.0312723252E+00   -7.0039129680E+00   -6.9767656705E+00   -6.9498280820E+00
   -6.9230976864E+00   -6.8965720772E+00   -6.8702490283E+00   -6.8441261583E+00
   -6.8182011228E+00   -6.7924718194E+00   -6.7669360023E+00   -6.7415913716E+00
   -6.7164359473E+00   -6.6914676176E+00   -6.6666841185E+00   -6.6420835836E+00
   -6.6176640012E+00   -6.5934232390E+00   -6.5693594326E+00   -6.5454707017E+00
   -6.5217550486E+00   -6.4982105947E+00   -6.4748355890E+00   -6.4516281719E+00
   -6.4285864372E+00   -6.4057087597E+00   -6.3829933943E+00   -6.3604384744E+00
   -6.3380424193E+00   -6.3158035896E+00   -6.2937202543E+00   -6.2717907715E+00
   -6.2500136344E+00   -6.2283872524E+00   -6.2069099142E+00   -6.1855802377E+00
   -6.1643967105E+00   -6.1433577420E+00   -6.1224618749E+00   -6.1017077288E+00
   -6.0810938544E+00   -6.0606186973E+00   -6.0402810049E+00   -6.0200794022E+00
   -6.0000124477E+00   -5.9800787976E+00   -5.9602772079E+00   -5.9406063675E+00
   -5.9210648524E+00   -5.9016515069E+00   -5.8823650935E+00   -5.8632043276E+00
   -5.8441679180E+00   -5.8252547637E+00   -5.8064636731E+00   -5.7877933816E+00
   -5.7692427506E+00   -5.7508106952E+00   -5.7324960790E+00   -5.7142976644E+00
   -5.6962144445E+00   -5.6782453527E+00   -5.6603892941E+00   -5.6426450978E+00
   -5.6250118336E+00   -5.6074884685E+00   -5.5900739368E+00   -5.5727671689E+00
   -5.5555672620E+00   -5.5384732311E+00   -5.5214840437E+00   -5.5045987155E+00
   -5.4878163732E+00   -5.4711360780E+00   -5.4545568339E+00   -5.4380777265E+00
   -5.4216979149E+00   -5.4054165041E+00   -5.3892325385E+00   -5.3731451581E+00
   -5.3571535579E+00   -5.3412568847E+00   -5.3254542263E+00   -5.3097447630E+00
   -5.2941277286E+00   -5.2786023102E+00   -5.2631676417E+00   -5.2478229301E+00
   -5.2325674517E+00   -5.2174004312E+00   -5.2023210519E+00   -5.1873285353E+00
   -5.1724222020E+00   -5.1576013132E+00   -5.1428651042E+00   -5.1282127990E+00
   -5.1136437653E+00   -5.0991572987E+00   -5.0847526888E+00   -5.0704291526E+00
   -5.0561861056E+00   -5.0420228764E+00   -5.0279387937E+00   -5.0139331111E+00
   -5.0000052402E+00   -4.9861545582E+00   -4.9723804251E+00   -4.9586821534E+00
   -4.9450591216E+00   -4.9315107633E+00   -4.9180364681E+00   -4.9046356106E+00
   -4.8913075278E+00   -4.8780517099E+00   -4.8648675748E+00   -4.8517545406E+00
   -4.8387119596E+00   -4.8257393152E+00   -4.8128360727E+00   -4.8000016772E+00
   -4.7872355467E+00   -4.7745371029E+00   -4.7619058742E+00   -4.7493413311E+00
   -4.7368429443E+00   -4.7244101188E+00   -4.7120423937E+00   -4.6997392806E+00
   -4.6875002747E+00   -4.6753248513E+00   -4.6632124702E+00   -4.6511627105E+00
   -4.6391750908E+00   -4.6272491297E+00   -4.6153842964E+00   -4.6035801425E+00
   -4.5918362390E+00   -4.5801521269E+00   -4.5685273472E+00   -4.5569613687E+00
   -4.5454538208E+00   -4.5340042697E+00   -4.5226122775E+00   -4.5112773896E+00
   -4.4999991316E+00   -4.4887771444E+00   -4.4776110107E+00   -4.4665003132E+00
   -4.4554446020E+00   -4.4444434592E+00   -4.4334965287E+00   -4.4226034125E+00
   -4.4117637131E+00   -4.4009769893E+00   -4.3902428680E+00   -4.3795609994E+00
   -4.3689310041E+00   -4.3583525032E+00   -4.3478250683E+00   -4.3373483595E+00
   -4.3269220369E+00   -4.3165457392E+00   -4.3062191047E+00   -4.2959417216E+00
   -4.2857132724E+00   -4.2755334309E+00   -4.2654018525E+00   -4.2553181926E+00
   -4.2452820585E+00   -4.2352931455E+00   -4.2253511443E+00   -4.2154557264E+00
   -4.2056065632E+00   -4.1958032844E+00   -4.1860455886E+00   -4.1763331866E+00
   -4.1666657653E+00   -4.1570430114E+00   -4.1474645795E+00   -4.1379301632E+00
   -4.1284394962E+00   -4.1189922798E+00   -4.1095882155E+00   -4.1002269859E+00
   -4.0909082710E+00   -4.0816318301E+00   -4.0723973783E+00   -4.0632046311E+00
   -4.0540533019E+00   -4.0449430498E+00   -4.0358736616E+00   -4.0268448658E+00
   -4.0178563910E+00   -4.0089079657E+00   -3.9999992767E+00   -3.9911300850E+00
   -3.9823001498E+00   -3.9735092124E+00   -3.9647570140E+00   -3.9560432774E+00
   -3.9473677258E+00   -3.9387301523E+00   -3.9301303103E+00   -3.9215679531E+00
   -3.9130428339E+00   -3.9045546578E+00   -3.8961032276E+00   -3.8876883163E+00
   -3.8793096887E+00   -3.8709671097E+00   -3.8626603253E+00   -3.8543890853E+00
   -3.8461532026E+00   -3.8379524529E+00   -3.8297866118E+00   -3.8216554553E+00
   -3.8135587185E+00   -3.8054962113E+00   -3.7974677337E+00   -3.7894730720E+00
   -3.7815120123E+00   -3.7735843361E+00   -3.7656897873E+00   -3.7578282098E+00
   -3.7499993998E+00   -3.7422031532E+00   -3.7344392664E+00   -3.7267075162E+00
   -3.7190076885E+00   -3.7113396217E+00   -3.7037031215E+00   -3.6960979936E+00
   -3.6885240434E+00   -3.6809810476E+00   -3.6734688243E+00   -3.6659872099E+00
   -3.6585360190E+00   -3.6511150664E+00   -3.6437241668E+00   -3.6363630996E+00
   -3.6290317065E+00   -3.6217298251E+00   -3.6144572787E+00   -3.6072138906E+00
   -3.5999994843E+00   -3.5928138453E+00   -3.5856568304E+00   -3.5785282817E+00
   -3.5714280307E+00   -3.5643559091E+00   -3.5573117483E+00   -3.5502953433E+00
   -3.5433065579E+00   -3.5363452418E+00   -3.5294112345E+00   -3.5225043754E+00
   -3.5156245040E+00   -3.5087714271E+00   -3.5019450081E+00   -3.4951451075E+00
   -3.4883715723E+00   -3.4816242494E+00   -3.4749029856E+00   -3.4682076026E+00
   -3.4615379564E+00   -3.4548939210E+00   -3.4482753504E+00   -3.4416820986E+00
   -3.4351140197E+00   -3.4285709528E+00   -3.4220527399E+00   -3.4155592708E+00
   -3.4090904065E+00   -3.4026460077E+00   -3.3962259353E+00   -3.3898300483E+00
   -3.3834581690E+00   -3.3771102051E+00   -3.3707860239E+00   -3.3644854929E+00
   -3.3582084793E+00   -3.3519548504E+00   -3.3457244455E+00   -3.3395171500E+00
   -3.3333328514E+00   -3.3271714231E+00   -3.3210327386E+00   -3.3149166715E+00
   -3.3088230860E+00   -3.3027518344E+00   -3.2967028277E+00   -3.2906759452E+00
   -3.2846710664E+00   -3.2786880706E+00   -3.2727268374E+00   -3.2667872181E+00
   -3.2608691116E+00   -3.2549724151E+00   -3.2490970137E+00   -3.2432427923E+00
   -3.2374096359E+00   -3.2315974259E+00   -3.2258060164E+00   -3.2200353326E+00
   -3.2142852650E+00   -3.2085557040E+00   -3.2028465398E+00   -3.1971576630E+00
   -3.1914889480E+00   -3.1858402805E+00   -3.1802115785E+00   -3.1746027374E+00
   -3.1690136527E+00   -3.1634442199E+00   -3.1578943344E+00   -3.1523638677E+00
   -3.1468527291E+00   -3.1413608321E+00   -3.1358880772E+00   -3.1304343647E+00
   -3.1249995949E+00   -3.1195836681E+00   -3.1141864557E+00   -3.1088078835E+00
   -3.1034478635E+00   -3.0981063010E+00   -3.0927831007E+00   -3.0874781678E+00
   -3.0821914073E+00   -3.0769226931E+00   -3.0716719605E+00   -3.0664391234E+00
   -3.0612240912E+00   -3.0560267733E+00   -3.0508470791E+00   -3.0456849181E+00
   -3.0405401697E+00   -3.0354127722E+00   -3.0303026439E+00   -3.0252096983E+00
   -3.0201338492E+00   -3.0150750102E+00   -3.0100330948E+00   -3.0050079908E+00
   -2.9999996329E+00   -2.9950079467E+00
  </PP_LOCAL>
 <PP_NONLOCAL>
   <PP_BETA.1
       type="real"
       size=" 602"
       columns="4"
       index="1"
       angular_momentum="0"
       cutoff_radius_index=" 240"
       cutoff_radius="    2.3900000000E+00" >
    0.0000000000E+00   -4.4061561419E-02   -8.8092501979E-02   -1.3206209095E-01
   -1.7593937897E-01   -2.1969309142E-01   -2.6329152508E-01   -3.0670244910E-01
   -3.4989301125E-01   -3.9282965048E-01   -4.3547801677E-01   -4.7780289906E-01
   -5.1976816228E-01   -5.6133669400E-01   -6.0247036174E-01   -6.4312998129E-01
   -6.8327529687E-01   -7.2286497337E-01   -7.6185660135E-01   -8.0020671496E-01
   -8.3787082305E-01   -8.7480345363E-01   -9.1095821188E-01   -9.4628785136E-01
   -9.8074435866E-01   -1.0142790512E+00   -1.0468426873E+00   -1.0783855894E+00
   -1.1088577786E+00   -1.1382091206E+00   -1.1663894828E+00   -1.1933489000E+00
   -1.2190377512E+00   -1.2434069442E+00   -1.2664081042E+00   -1.2879937764E+00
   -1.3081176222E+00   -1.3267346347E+00   -1.3438013425E+00   -1.3592760226E+00
   -1.3731189162E+00   -1.3852924396E+00   -1.3957613930E+00   -1.4044931689E+00
   -1.4114579551E+00   -1.4166289314E+00   -1.4199824590E+00   -1.4214982630E+00
   -1.4211596124E+00   -1.4189534752E+00   -1.4148706688E+00   -1.4089059958E+00
   -1.4010583941E+00   -1.3913310110E+00   -1.3797313211E+00   -1.3662712132E+00
   -1.3509670158E+00   -1.3338396023E+00   -1.3149143472E+00   -1.2942212057E+00
   -1.2717946463E+00   -1.2476736557E+00   -1.2219016887E+00   -1.1945265716E+00
   -1.1656004643E+00   -1.1351797176E+00   -1.1033247574E+00   -1.0700999552E+00
   -1.0355734550E+00   -9.9981700015E-01   -9.6290574741E-01   -9.2491804348E-01
   -8.8593520265E-01   -8.4604127398E-01   -8.0532278685E-01   -7.6386848639E-01
   -7.2176906500E-01   -6.7911687221E-01   -6.3600559347E-01   -5.9252998748E-01
   -5.4878556557E-01   -5.0486828011E-01   -4.6087420976E-01   -4.1689924306E-01
   -3.7303876169E-01   -3.2938732504E-01   -2.8603835734E-01   -2.4308383888E-01
   -2.0061400274E-01   -1.5871703845E-01   -1.1747880394E-01   -7.6982547138E-02
   -3.7308638673E-02    1.4656374125E-03    3.9266393457E-02    7.6023426390E-02