<UPF version="2.0.1">
  <PP_INFO>

 This pseudopotential file has been produced using the code
 ONCVPSP  (Optimized Norm-Conservinng Vanderbilt PSeudopotential)
 scalar-relativistic version 2.1.1, 03/26/2014 by D. R. Hamann
 The code is available through a link at URL www.mat-simresearch.com.
 Documentation with the package provides a full discription of the
 input data below.


 While it is not required under the terms of the GNU GPL, it is
 suggested that you cite D. R. Hamann, Phys. Rev. B 88, 085117 (2013)
 in any publication using these pseudopotentials.


 Copyright 2015 The Regents of the University of California
 
 This work is licensed under the Creative Commons Attribution-ShareAlike 
 4.0 International License. To view a copy of this license, visit 
 http://creativecommons.org/licenses/by-sa/4.0/ or send a letter to 
 Creative Commons, PO Box 1866, Mountain View, CA 94042, USA.
 
 This pseudopotential is part of the Schlipf-Gygi norm-conserving 
 pseudopotential library. Its construction parameters were tuned to 
 reproduce materials of a training set with very high accuracy and 
 should be suitable as a general purpose pseudopotential to treat a 
 variety of different compounds. For details of the construction and 
 testing of the pseudopotential please refer to:
 
 [insert reference to paper here]
 
 We kindly ask that you include this reference in all publications 
 associated to this pseudopotential.


    <PP_INPUTFILE>
# ATOM AND REFERENCE CONFIGURATION
# atsym  z    nc    nv    iexc   psfile
  Kr 36.00     6     2     4      upf
#
#   n    l    f        energy (Ha)
    1    0    2.00
    2    0    2.00
    2    1    6.00
    3    0    2.00
    3    1    6.00
    3    2   10.00
    4    0    2.00
    4    1    6.00
#
# PSEUDOPOTENTIAL AND OPTIMIZATION
# lmax
    2
#
#   l,   rc,     ep,   ncon, nbas, qcut
    0   2.80229  -0.84704    5    8   4.94079
    1   2.86994  -0.33984    5    8   4.26206
    2   2.86994   0.12317    5    8   4.58079
#
# LOCAL POTENTIAL
# lloc, lpopt,  rc(5),   dvloc0
    4    5   2.45769      0.00000
#
# VANDERBILT-KLEINMAN-BYLANDER PROJECTORs
# l, nproj, debl
    0    2   1.42340
    1    2   1.52195
    2    2   1.31977
#
# MODEL CORE CHARGE
# icmod, fcfact
    0   0.00000
#
# LOG DERIVATIVE ANALYSIS
# epsh1, epsh2, depsh
   -5.00    3.00    0.02
#
# OUTPUT GRID
# rlmax, drl
    6.00    0.01
#
# TEST CONFIGURATIONS
# ncnf
    0
# nvcnf
#   n    l    f
    </PP_INPUTFILE>
  </PP_INFO>
  <!--                               -->
  <!-- END OF HUMAN READABLE SECTION -->
  <!--                               -->
    <PP_HEADER
       generated="Generated using ONCVPSP code by D. R. Hamann"
       author="Martin Schlipf and Francois Gygi"
       date="150105"
       comment=""
       element="Kr"
       pseudo_type="NC"
       relativistic="scalar"
       is_ultrasoft="F"
       is_paw="F"
       is_coulomb="F"
       has_so="F"
       has_wfc="F"
       has_gipaw="F"
       core_correction="F"
       functional="PBE"
       z_valence="    8.00"
       total_psenergy="  -1.85888160814E+01"
       rho_cutoff="   6.01000000000E+00"
       l_max="2"
       l_local="-1"
       mesh_size="   602"
       number_of_wfc="0"
       number_of_proj="6"/>
 <PP_MESH>
   <PP_R type="real"  size=" 602" columns="8">
    0.0000    0.0100    0.0200    0.0300    0.0400    0.0500    0.0600    0.0700
    0.0800    0.0900    0.1000    0.1100    0.1200    0.1300    0.1400    0.1500
    0.1600    0.1700    0.1800    0.1900    0.2000    0.2100    0.2200    0.2300
    0.2400    0.2500    0.2600    0.2700    0.2800    0.2900    0.3000    0.3100
    0.3200    0.3300    0.3400    0.3500    0.3600    0.3700    0.3800    0.3900
    0.4000    0.4100    0.4200    0.4300    0.4400    0.4500    0.4600    0.4700
    0.4800    0.4900    0.5000    0.5100    0.5200    0.5300    0.5400    0.5500
    0.5600    0.5700    0.5800    0.5900    0.6000    0.6100    0.6200    0.6300
    0.6400    0.6500    0.6600    0.6700    0.6800    0.6900    0.7000    0.7100
    0.7200    0.7300    0.7400    0.7500    0.7600    0.7700    0.7800    0.7900
    0.8000    0.8100    0.8200    0.8300    0.8400    0.8500    0.8600    0.8700
    0.8800    0.8900    0.9000    0.9100    0.9200    0.9300    0.9400    0.9500
    0.9600    0.9700    0.9800    0.9900    1.0000    1.0100    1.0200    1.0300
    1.0400    1.0500    1.0600    1.0700    1.0800    1.0900    1.1000    1.1100
    1.1200    1.1300    1.1400    1.1500    1.1600    1.1700    1.1800    1.1900
    1.2000    1.2100    1.2200    1.2300    1.2400    1.2500    1.2600    1.2700
    1.2800    1.2900    1.3000    1.3100    1.3200    1.3300    1.3400    1.3500
    1.3600    1.3700    1.3800    1.3900    1.4000    1.4100    1.4200    1.4300
    1.4400    1.4500    1.4600    1.4700    1.4800    1.4900    1.5000    1.5100
    1.5200    1.5300    1.5400    1.5500    1.5600    1.5700    1.5800    1.5900
    1.6000    1.6100    1.6200    1.6300    1.6400    1.6500    1.6600    1.6700
    1.6800    1.6900    1.7000    1.7100    1.7200    1.7300    1.7400    1.7500
    1.7600    1.7700    1.7800    1.7900    1.8000    1.8100    1.8200    1.8300
    1.8400    1.8500    1.8600    1.8700    1.8800    1.8900    1.9000    1.9100
    1.9200    1.9300    1.9400    1.9500    1.9600    1.9700    1.9800    1.9900
    2.0000    2.0100    2.0200    2.0300    2.0400    2.0500    2.0600    2.0700
    2.0800    2.0900    2.1000    2.1100    2.1200    2.1300    2.1400    2.1500
    2.1600    2.1700    2.1800    2.1900    2.2000    2.2100    2.2200    2.2300
    2.2400    2.2500    2.2600    2.2700    2.2800    2.2900    2.3000    2.3100
    2.3200    2.3300    2.3400    2.3500    2.3600    2.3700    2.3800    2.3900
    2.4000    2.4100    2.4200    2.4300    2.4400    2.4500    2.4600    2.4700
    2.4800    2.4900    2.5000    2.5100    2.5200    2.5300    2.5400    2.5500
    2.5600    2.5700    2.5800    2.5900    2.6000    2.6100    2.6200    2.6300
    2.6400    2.6500    2.6600    2.6700    2.6800    2.6900    2.7000    2.7100
    2.7200    2.7300    2.7400    2.7500    2.7600    2.7700    2.7800    2.7900
    2.8000    2.8100    2.8200    2.8300    2.8400    2.8500    2.8600    2.8700
    2.8800    2.8900    2.9000    2.9100    2.9200    2.9300    2.9400    2.9500
    2.9600    2.9700    2.9800    2.9900    3.0000    3.0100    3.0200    3.0300
    3.0400    3.0500    3.0600    3.0700    3.0800    3.0900    3.1000    3.1100
    3.1200    3.1300    3.1400    3.1500    3.1600    3.1700    3.1800    3.1900
    3.2000    3.2100    3.2200    3.2300    3.2400    3.2500    3.2600    3.2700
    3.2800    3.2900    3.3000    3.3100    3.3200    3.3300    3.3400    3.3500
    3.3600    3.3700    3.3800    3.3900    3.4000    3.4100    3.4200    3.4300
    3.4400    3.4500    3.4600    3.4700    3.4800    3.4900    3.5000    3.5100
    3.5200    3.5300    3.5400    3.5500    3.5600    3.5700    3.5800    3.5900
    3.6000    3.6100    3.6200    3.6300    3.6400    3.6500    3.6600    3.6700
    3.6800    3.6900    3.7000    3.7100    3.7200    3.7300    3.7400    3.7500
    3.7600    3.7700    3.7800    3.7900    3.8000    3.8100    3.8200    3.8300
    3.8400    3.8500    3.8600    3.8700    3.8800    3.8900    3.9000    3.9100
    3.9200    3.9300    3.9400    3.9500    3.9600    3.9700    3.9800    3.9900
    4.0000    4.0100    4.0200    4.0300    4.0400    4.0500    4.0600    4.0700
    4.0800    4.0900    4.1000    4.1100    4.1200    4.1300    4.1400    4.1500
    4.1600    4.1700    4.1800    4.1900    4.2000    4.2100    4.2200    4.2300
    4.2400    4.2500    4.2600    4.2700    4.2800    4.2900    4.3000    4.3100
    4.3200    4.3300    4.3400    4.3500    4.3600    4.3700    4.3800    4.3900
    4.4000    4.4100    4.4200    4.4300    4.4400    4.4500    4.4600    4.4700
    4.4800    4.4900    4.5000    4.5100    4.5200    4.5300    4.5400    4.5500
    4.5600    4.5700    4.5800    4.5900    4.6000    4.6100    4.6200    4.6300
    4.6400    4.6500    4.6600    4.6700    4.6800    4.6900    4.7000    4.7100
    4.7200    4.7300    4.7400    4.7500    4.7600    4.7700    4.7800    4.7900
    4.8000    4.8100    4.8200    4.8300    4.8400    4.8500    4.8600    4.8700
    4.8800    4.8900    4.9000    4.9100    4.9200    4.9300    4.9400    4.9500
    4.9600    4.9700    4.9800    4.9900    5.0000    5.0100    5.0200    5.0300
    5.0400    5.0500    5.0600    5.0700    5.0800    5.0900    5.1000    5.1100
    5.1200    5.1300    5.1400    5.1500    5.1600    5.1700    5.1800    5.1900
    5.2000    5.2100    5.2200    5.2300    5.2400    5.2500    5.2600    5.2700
    5.2800    5.2900    5.3000    5.3100    5.3200    5.3300    5.3400    5.3500
    5.3600    5.3700    5.3800    5.3900    5.4000    5.4100    5.4200    5.4300
    5.4400    5.4500    5.4600    5.4700    5.4800    5.4900    5.5000    5.5100
    5.5200    5.5300    5.5400    5.5500    5.5600    5.5700    5.5800    5.5900
    5.6000    5.6100    5.6200    5.6300    5.6400    5.6500    5.6600    5.6700
    5.6800    5.6900    5.7000    5.7100    5.7200    5.7300    5.7400    5.7500
    5.7600    5.7700    5.7800    5.7900    5.8000    5.8100    5.8200    5.8300
    5.8400    5.8500    5.8600    5.8700    5.8800    5.8900    5.9000    5.9100
    5.9200    5.9300    5.9400    5.9500    5.9600    5.9700    5.9800    5.9900
    6.0000    6.0100
   </PP_R>
   <PP_RAB type="real"  size=" 602" columns="8">
    0.0100    0.0100    0.0100    0.0100    0.0100    0.0100    0.0100    0.0100
    0.0100    0.0100    0.0100    0.0100    0.0100    0.0100    0.0100    0.0100
    0.0100    0.0100    0.0100    0.0100    0.0100    0.0100    0.0100    0.0100
    0.0100    0.0100    0.0100    0.0100    0.0100    0.0100    0.0100    0.0100
    0.0100    0.0100    0.0100    0.0100    0.0100    0.0100    0.0100    0.0100
    0.0100    0.0100    0.0100    0.0100    0.0100    0.0100    0.0100    0.0100
    0.0100    0.0100    0.0100    0.0100    0.0100    0.0100    0.0100    0.0100
    0.0100    0.0100    0.0100    0.0100    0.0100    0.0100    0.0100    0.0100
    0.0100    0.0100    0.0100    0.0100    0.0100    0.0100    0.0100    0.0100
    0.0100    0.0100    0.0100    0.0100    0.0100    0.0100    0.0100    0.0100
    0.0100    0.0100    0.0100    0.0100    0.0100    0.0100    0.0100    0.0100
    0.0100    0.0100    0.0100    0.0100    0.0100    0.0100    0.0100    0.0100
    0.0100    0.0100    0.0100    0.0100    0.0100    0.0100    0.0100    0.0100
    0.0100    0.0100    0.0100    0.0100    0.0100    0.0100    0.0100    0.0100
    0.0100    0.0100    0.0100    0.0100    0.0100    0.0100    0.0100    0.0100
    0.0100    0.0100    0.0100    0.0100    0.0100    0.0100    0.0100    0.0100
    0.0100    0.0100    0.0100    0.0100    0.0100    0.0100    0.0100    0.0100
    0.0100    0.0100    0.0100    0.0100    0.0100    0.0100    0.0100    0.0100
    0.0100    0.0100    0.0100    0.0100    0.0100    0.0100    0.0100    0.0100
    0.0100    0.0100    0.0100    0.0100    0.0100    0.0100    0.0100    0.0100
    0.0100    0.0100    0.0100    0.0100    0.0100    0.0100    0.0100    0.0100
    0.0100    0.0100    0.0100    0.0100    0.0100    0.0100    0.0100    0.0100
    0.0100    0.0100    0.0100    0.0100    0.0100    0.0100    0.0100    0.0100
    0.0100    0.0100    0.0100    0.0100    0.0100    0.0100    0.0100    0.0100
    0.0100    0.0100    0.0100    0.0100    0.0100    0.0100    0.0100    0.0100
    0.0100    0.0100    0.0100    0.0100    0.0100    0.0100    0.0100    0.0100
    0.0100    0.0100    0.0100    0.0100    0.0100    0.0100    0.0100    0.0100
    0.0100    0.0100    0.0100    0.0100    0.0100    0.0100    0.0100    0.0100
    0.0100    0.0100    0.0100    0.0100    0.0100    0.0100    0.0100    0.0100
    0.0100    0.0100    0.0100    0.0100    0.0100    0.0100    0.0100    0.0100
    0.0100    0.0100    0.0100    0.0100    0.0100    0.0100    0.0100    0.0100
    0.0100    0.0100    0.0100    0.0100    0.0100    0.0100    0.0100    0.0100
    0.0100    0.0100    0.0100    0.0100    0.0100    0.0100    0.0100    0.0100
    0.0100    0.0100    0.0100    0.0100    0.0100    0.0100    0.0100    0.0100
    0.0100    0.0100    0.0100    0.0100    0.0100    0.0100    0.0100    0.0100
    0.0100    0.0100    0.0100    0.0100    0.0100    0.0100    0.0100    0.0100
    0.0100    0.0100    0.0100    0.0100    0.0100    0.0100    0.0100    0.0100
    0.0100    0.0100    0.0100    0.0100    0.0100    0.0100    0.0100    0.0100
    0.0100    0.0100    0.0100    0.0100    0.0100    0.0100    0.0100    0.0100
    0.0100    0.0100    0.0100    0.0100    0.0100    0.0100    0.0100    0.0100
    0.0100    0.0100    0.0100    0.0100    0.0100    0.0100    0.0100    0.0100
    0.0100    0.0100    0.0100    0.0100    0.0100    0.0100    0.0100    0.0100
    0.0100    0.0100    0.0100    0.0100    0.0100    0.0100    0.0100    0.0100
    0.0100    0.0100    0.0100    0.0100    0.0100    0.0100    0.0100    0.0100
    0.0100    0.0100    0.0100    0.0100    0.0100    0.0100    0.0100    0.0100
    0.0100    0.0100    0.0100    0.0100    0.0100    0.0100    0.0100    0.0100
    0.0100    0.0100    0.0100    0.0100    0.0100    0.0100    0.0100    0.0100
    0.0100    0.0100    0.0100    0.0100    0.0100    0.0100    0.0100    0.0100
    0.0100    0.0100    0.0100    0.0100    0.0100    0.0100    0.0100    0.0100
    0.0100    0.0100    0.0100    0.0100    0.0100    0.0100    0.0100    0.0100
    0.0100    0.0100    0.0100    0.0100    0.0100    0.0100    0.0100    0.0100
    0.0100    0.0100    0.0100    0.0100    0.0100    0.0100    0.0100    0.0100
    0.0100    0.0100    0.0100    0.0100    0.0100    0.0100    0.0100    0.0100
    0.0100    0.0100    0.0100    0.0100    0.0100    0.0100    0.0100    0.0100
    0.0100    0.0100    0.0100    0.0100    0.0100    0.0100    0.0100    0.0100
    0.0100    0.0100    0.0100    0.0100    0.0100    0.0100    0.0100    0.0100
    0.0100    0.0100    0.0100    0.0100    0.0100    0.0100    0.0100    0.0100
    0.0100    0.0100    0.0100    0.0100    0.0100    0.0100    0.0100    0.0100
    0.0100    0.0100    0.0100    0.0100    0.0100    0.0100    0.0100    0.0100
    0.0100    0.0100    0.0100    0.0100    0.0100    0.0100    0.0100    0.0100
    0.0100    0.0100    0.0100    0.0100    0.0100    0.0100    0.0100    0.0100
    0.0100    0.0100    0.0100    0.0100    0.0100    0.0100    0.0100    0.0100
    0.0100    0.0100    0.0100    0.0100    0.0100    0.0100    0.0100    0.0100
    0.0100    0.0100    0.0100    0.0100    0.0100    0.0100    0.0100    0.0100
    0.0100    0.0100    0.0100    0.0100    0.0100    0.0100    0.0100    0.0100
    0.0100    0.0100    0.0100    0.0100    0.0100    0.0100    0.0100    0.0100
    0.0100    0.0100    0.0100    0.0100    0.0100    0.0100    0.0100    0.0100
    0.0100    0.0100    0.0100    0.0100    0.0100    0.0100    0.0100    0.0100
    0.0100    0.0100    0.0100    0.0100    0.0100    0.0100    0.0100    0.0100
    0.0100    0.0100    0.0100    0.0100    0.0100    0.0100    0.0100    0.0100
    0.0100    0.0100    0.0100    0.0100    0.0100    0.0100    0.0100    0.0100
    0.0100    0.0100    0.0100    0.0100    0.0100    0.0100    0.0100    0.0100
    0.0100    0.0100    0.0100    0.0100    0.0100    0.0100    0.0100    0.0100
    0.0100    0.0100    0.0100    0.0100    0.0100    0.0100    0.0100    0.0100
    0.0100    0.0100    0.0100    0.0100    0.0100    0.0100    0.0100    0.0100
    0.0100    0.0100
   </PP_RAB>
 </PP_MESH>
  <PP_LOCAL type="real"  size=" 602" columns="4">
   -1.4625710481E+01   -1.4627452861E+01   -1.4633229605E+01   -1.4642370678E+01
   -1.4654206043E+01   -1.4667906189E+01   -1.4682566354E+01   -1.4697287570E+01
   -1.4711244159E+01   -1.4723731635E+01   -1.4734193502E+01   -1.4742228922E+01
   -1.4747585443E+01   -1.4750141675E+01   -1.4749884568E+01   -1.4746885055E+01
   -1.4741274746E+01   -1.4733225305E+01   -1.4722931320E+01   -1.4710596826E+01
   -1.4696425270E+01   -1.4680612486E+01   -1.4663342139E+01   -1.4644783113E+01
   -1.4625088358E+01   -1.4604394789E+01   -1.4582823849E+01   -1.4560482558E+01
   -1.4537464760E+01   -1.4513852482E+01   -1.4489717277E+01   -1.4465121510E+01
   -1.4440119528E+01   -1.4414758722E+01   -1.4389080425E+01   -1.4363120734E+01
   -1.4336911166E+01   -1.4310479249E+01   -1.4283848984E+01   -1.4257041261E+01
   -1.4230074186E+01   -1.4202963363E+01   -1.4175722127E+01   -1.4148361741E+01
   -1.4120891561E+01   -1.4093319187E+01   -1.4065650583E+01   -1.4037890194E+01
   -1.4010041047E+01   -1.3982104849E+01   -1.3954082064E+01   -1.3925971999E+01
   -1.3897772897E+01   -1.3869481993E+01   -1.3841095595E+01   -1.3812609174E+01
   -1.3784017395E+01   -1.3755314239E+01   -1.3726493018E+01   -1.3697546490E+01
   -1.3668466889E+01   -1.3639246016E+01   -1.3609875294E+01   -1.3580345826E+01
   -1.3550648473E+01   -1.3520773903E+01   -1.3490712657E+01   -1.3460455207E+01
   -1.3429992015E+01   -1.3399313588E+01   -1.3368410534E+01   -1.3337273612E+01
   -1.3305893781E+01   -1.3274262251E+01   -1.3242370532E+01   -1.3210210467E+01
   -1.3177774281E+01   -1.3145054610E+01   -1.3112044541E+01   -1.3078737639E+01
   -1.3045127974E+01   -1.3011210147E+01   -1.2976979307E+01   -1.2942431171E+01
   -1.2907562032E+01   -1.2872368775E+01   -1.2836848878E+01   -1.2801000415E+01
   -1.2764822058E+01   -1.2728313072E+01   -1.2691473307E+01   -1.2654303191E+01
   -1.2616803716E+01   -1.2578976424E+01   -1.2540823393E+01   -1.2502347213E+01
   -1.2463550971E+01   -1.2424438228E+01   -1.2385012983E+01   -1.2345279678E+01
   -1.2305243162E+01   -1.2264908658E+01   -1.2224281736E+01   -1.2183368298E+01
   -1.2142174535E+01   -1.2100706930E+01   -1.2058972228E+01   -1.2016977392E+01
   -1.1974729589E+01   -1.1932236161E+01   -1.1889504631E+01   -1.1846542659E+01
   -1.1803358021E+01   -1.1759958588E+01   -1.1716352329E+01   -1.1672547280E+01
   -1.1628551524E+01   -1.1584373181E+01   -1.1540020403E+01   -1.1495501348E+01
   -1.1450824175E+01   -1.1405997039E+01   -1.1361028068E+01   -1.1315925362E+01
   -1.1270697000E+01   -1.1225350995E+01   -1.1179895319E+01   -1.1134337911E+01
   -1.1088686611E+01   -1.1042949215E+01   -1.0997133470E+01   -1.0951247007E+01
   -1.0905297413E+01   -1.0859292205E+01   -1.0813238780E+01   -1.0767144502E+01
   -1.0721016623E+01   -1.0674862296E+01   -1.0628688654E+01   -1.0582502655E+01
   -1.0536311232E+01   -1.0490121217E+01   -1.0443939316E+01   -1.0397772232E+01
   -1.0351626470E+01   -1.0305508529E+01   -1.0259424781E+01   -1.0213381498E+01
   -1.0167384918E+01   -1.0121441091E+01   -1.0075556100E+01   -1.0029735808E+01
   -9.9839860891E+00   -9.9383126642E+00   -9.8927211844E+00   -9.8472172244E+00
   -9.8018062123E+00   -9.7564935744E+00   -9.7112845173E+00   -9.6661843142E+00
   -9.6211979560E+00   -9.5763305459E+00   -9.5315868790E+00   -9.4869718623E+00
   -9.4424901119E+00   -9.3981463333E+00   -9.3539449582E+00   -9.3098904935E+00
   -9.2659871792E+00   -9.2222393282E+00   -9.1786509807E+00   -9.1352262611E+00
   -9.0919690006E+00   -9.0488831421E+00   -9.0059722980E+00   -8.9632402369E+00
   -8.9206903430E+00   -8.8783262186E+00   -8.8361510251E+00   -8.7941681608E+00
   -8.7523806100E+00   -8.7107915350E+00   -8.6694037652E+00   -8.6282202095E+00
   -8.5872435589E+00   -8.5464764532E+00   -8.5059214621E+00   -8.4655809425E+00
   -8.4254573577E+00   -8.3855527800E+00   -8.3458695533E+00   -8.3064095293E+00
   -8.2671747987E+00   -8.2281671316E+00   -8.1893883070E+00   -8.1508400385E+00
   -8.1125237803E+00   -8.0744412031E+00   -8.0365934921E+00   -7.9989821104E+00
   -7.9616081708E+00   -7.9244728118E+00   -7.8875771452E+00   -7.8509219743E+00
   -7.8145083774E+00   -7.7783369482E+00   -7.7424084888E+00   -7.7067236265E+00
   -7.6712827995E+00   -7.6360866840E+00   -7.6011354562E+00   -7.5664295521E+00
   -7.5319691973E+00   -7.4977544562E+00   -7.4637856406E+00   -7.4300625549E+00
   -7.3965852538E+00   -7.3633536417E+00   -7.3303674051E+00   -7.2976264877E+00
   -7.2651303982E+00   -7.2328787724E+00   -7.2008712696E+00   -7.1691071829E+00
   -7.1375860680E+00   -7.1063072142E+00   -7.0752697928E+00   -7.0444732406E+00
   -7.0139164794E+00   -6.9835986097E+00   -6.9535187873E+00   -6.9236757165E+00
   -6.8940683907E+00   -6.8646956132E+00   -6.8355559245E+00   -6.8066481811E+00
   -6.7779708174E+00   -6.7495222020E+00   -6.7213010396E+00   -6.6933053777E+00
   -6.6655334071E+00   -6.6379836370E+00   -6.6106537343E+00   -6.5835417178E+00
   -6.5566457477E+00   -6.5299632506E+00   -6.5034919518E+00   -6.4772295837E+00
   -6.4511737476E+00   -6.4253220370E+00   -6.3996720604E+00   -6.3742217721E+00
   -6.3489689136E+00   -6.3239112518E+00   -6.2990468800E+00   -6.2743736981E+00
   -6.2498896138E+00   -6.2255928169E+00   -6.2014813428E+00   -6.1775532045E+00
   -6.1538066649E+00   -6.1302398686E+00   -6.1068509080E+00   -6.0836380962E+00
   -6.0605996590E+00   -6.0377337516E+00   -6.0150387167E+00   -5.9925128279E+00
   -5.9701543152E+00   -5.9479615122E+00   -5.9259327344E+00   -5.9040662618E+00
   -5.8823604257E+00   -5.8608135736E+00   -5.8394240196E+00   -5.8181900940E+00
   -5.7971101821E+00   -5.7761826347E+00   -5.7554057625E+00   -5.7347780162E+00
   -5.7142977900E+00   -5.6939634020E+00   -5.6737733420E+00   -5.6537260841E+00
   -5.6338200196E+00   -5.6140536047E+00   -5.5944254511E+00   -5.5749340857E+00
   -5.5555778805E+00   -5.5363556070E+00   -5.5172658807E+00   -5.4983072395E+00
   -5.4794783546E+00   -5.4607779739E+00   -5.4422047746E+00   -5.4237573526E+00
   -5.4054345576E+00   -5.3872351356E+00   -5.3691577657E+00   -5.3512012373E+00
   -5.3333644101E+00   -5.3156460890E+00   -5.2980449703E+00   -5.2805600189E+00
   -5.2631900975E+00   -5.2459340241E+00   -5.2287906491E+00   -5.2117589572E+00
   -5.1948378620E+00   -5.1780261985E+00   -5.1613229612E+00   -5.1447271465E+00
   -5.1282377171E+00   -5.1118535364E+00   -5.0955737182E+00   -5.0793972747E+00
   -5.0633231889E+00   -5.0473504374E+00   -5.0314781545E+00   -5.0157053981E+00
   -5.0000311762E+00   -4.9844545632E+00   -4.9689747149E+00   -4.9535907331E+00
   -4.9383016545E+00   -4.9231066361E+00   -4.9080048575E+00   -4.8929954625E+00
   -4.8780775199E+00   -4.8632502541E+00   -4.8485128720E+00   -4.8338645570E+00
   -4.8193044131E+00   -4.8048317182E+00   -4.7904457096E+00   -4.7761456085E+00
   -4.7619305565E+00   -4.7477998724E+00   -4.7337528265E+00   -4.7197886763E+00
   -4.7059066032E+00   -4.6921059547E+00   -4.6783860374E+00   -4.6647461433E+00
   -4.6511854956E+00   -4.6377034593E+00   -4.6242993800E+00   -4.6109725826E+00
   -4.5977223346E+00   -4.5845480075E+00   -4.5714489884E+00   -4.5584246335E+00
   -4.5454742572E+00   -4.5325972274E+00   -4.5197929748E+00   -4.5070608855E+00
   -4.4944003229E+00   -4.4818106425E+00   -4.4692913199E+00   -4.4568417698E+00
   -4.4444614069E+00   -4.4321495668E+00   -4.4199057701E+00   -4.4077294589E+00
   -4.3956200752E+00   -4.3835770068E+00   -4.3715997410E+00   -4.3596877718E+00
   -4.3478405671E+00   -4.3360575706E+00   -4.3243382279E+00   -4.3126820855E+00
   -4.3010886362E+00   -4.2895573727E+00   -4.2780877214E+00   -4.2666792526E+00
   -4.2553314918E+00   -4.2440439553E+00   -4.2328161286E+00   -4.2216475232E+00
   -4.2105377224E+00   -4.1994862648E+00   -4.1884926894E+00   -4.1775564722E+00
   -4.1666772239E+00   -4.1558545141E+00   -4.1450879032E+00   -4.1343769305E+00
   -4.1237211326E+00   -4.1131201404E+00   -4.1025735348E+00   -4.0920808965E+00
   -4.0816417612E+00   -4.0712557424E+00   -4.0609224652E+00   -4.0506415298E+00
   -4.0404125365E+00   -4.0302350223E+00   -4.0201086649E+00   -4.0100330867E+00
   -4.0000079064E+00   -3.9900327296E+00   -3.9801071394E+00   -3.9702308250E+00
   -3.9604034230E+00   -3.9506245701E+00   -3.9408938774E+00   -3.9312109739E+00
   -3.9215755528E+00   -3.9119872677E+00   -3.9024457721E+00   -3.8929506864E+00
   -3.8835016751E+00   -3.8740984385E+00   -3.8647406464E+00   -3.8554279684E+00
   -3.8461600372E+00   -3.8369365434E+00   -3.8277571973E+00   -3.8186216841E+00
   -3.8095296888E+00   -3.8004808594E+00   -3.7914749033E+00   -3.7825115440E+00
   -3.7735904812E+00   -3.7647114148E+00   -3.7558740108E+00   -3.7470779847E+00
   -3.7383230761E+00   -3.7296089987E+00   -3.7209354663E+00   -3.7123021659E+00
   -3.7037088129E+00   -3.6951551655E+00   -3.6866409510E+00   -3.6781658964E+00
   -3.6697297120E+00   -3.6613321058E+00   -3.6529728572E+00   -3.6446517060E+00
   -3.6363683921E+00   -3.6281226516E+00   -3.6199141783E+00   -3.6117427745E+00
   -3.6036081923E+00   -3.5955101835E+00   -3.5874485003E+00   -3.5794228529E+00
   -3.5714330315E+00   -3.5634788119E+00   -3.5555599575E+00   -3.5476762319E+00
   -3.5398273762E+00   -3.5320131504E+00   -3.5242333594E+00   -3.5164877778E+00
   -3.5087761802E+00   -3.5010983409E+00   -3.4934539845E+00   -3.4858429460E+00
   -3.4782650105E+00   -3.4707199631E+00   -3.4632075888E+00   -3.4557276465E+00
   -3.4482799283E+00   -3.4408642533E+00   -3.4334804168E+00   -3.4261282138E+00
   -3.4188074394E+00   -3.4115178419E+00   -3.4042592706E+00   -3.3970315318E+00
   -3.3898344300E+00   -3.3826677699E+00   -3.3755313391E+00   -3.3684249314E+00
   -3.3613483913E+00   -3.3543015327E+00   -3.3472841693E+00   -3.3402961148E+00
   -3.3333371517E+00   -3.3264071150E+00   -3.3195058427E+00   -3.3126331572E+00
   -3.3057888811E+00   -3.2989728366E+00   -3.2921848048E+00   -3.2854246531E+00
   -3.2786922160E+00   -3.2719873242E+00   -3.2653098084E+00   -3.2586594950E+00
   -3.2520361799E+00   -3.2454397413E+00   -3.2388700178E+00   -3.2323268480E+00
   -3.2258100705E+00   -3.2193195149E+00   -3.2128549959E+00   -3.2064163937E+00
   -3.2000035547E+00   -3.1936163248E+00   -3.1872545501E+00   -3.1809180664E+00
   -3.1746066998E+00   -3.1683203355E+00   -3.1620588268E+00   -3.1558220271E+00
   -3.1496097895E+00   -3.1434219585E+00   -3.1372583650E+00   -3.1311189016E+00
   -3.1250034285E+00   -3.1189118057E+00   -3.1128438934E+00   -3.1067995474E+00
   -3.1007785968E+00   -3.0947809440E+00   -3.0888064557E+00   -3.0828549986E+00
   -3.0769264392E+00   -3.0710206443E+00   -3.0651374440E+00   -3.0592767441E+00
   -3.0534384203E+00   -3.0476223455E+00   -3.0418283925E+00   -3.0360564341E+00
   -3.0303063173E+00   -3.0245779319E+00   -3.0188711695E+00   -3.0131859089E+00
   -3.0075220288E+00   -3.0018794080E+00   -2.9962579122E+00   -2.9906574103E+00
   -2.9850778116E+00   -2.9795190003E+00   -2.9739808610E+00   -2.9684632780E+00
   -2.9629661358E+00   -2.9574892845E+00   -2.9520326455E+00   -2.9465961109E+00
   -2.9411795705E+00   -2.9357829140E+00   -2.9304060314E+00   -2.9250487956E+00
   -2.9197110961E+00   -2.9143928471E+00   -2.9090939437E+00   -2.9038142807E+00
   -2.8985537532E+00   -2.8933122560E+00   -2.8880896526E+00   -2.8828858703E+00
   -2.8777008124E+00   -2.8725343787E+00   -2.8673864690E+00   -2.8622569832E+00
   -2.8571458120E+00   -2.8520528403E+00   -2.8469779978E+00   -2.8419211890E+00
   -2.8368823184E+00   -2.8318612905E+00   -2.8268580098E+00   -2.8218723624E+00
   -2.8169042582E+00   -2.8119536216E+00   -2.8070203614E+00   -2.8021043867E+00
   -2.7972056063E+00   -2.7923239292E+00   -2.7874592398E+00   -2.7826114665E+00
   -2.7777805307E+00   -2.7729663455E+00   -2.7681688243E+00   -2.7633878802E+00
   -2.7586234263E+00   -2.7538753481E+00   -2.7491435860E+00   -2.7444280611E+00
   -2.7397286909E+00   -2.7350453924E+00   -2.7303780830E+00   -2.7257266799E+00
   -2.7210910721E+00   -2.7164712057E+00   -2.7118670045E+00   -2.7072783898E+00
   -2.7027052825E+00   -2.6981476038E+00   -2.6936052747E+00   -2.6890781902E+00
   -2.6845662965E+00   -2.6800695225E+00   -2.6755877930E+00   -2.6711210327E+00
   -2.6666691665E+00   -2.6622321192E+00
  </PP_LOCAL>
 <PP_NONLOCAL>
   <PP_BETA.1
       type="real"
       size=" 602"
       columns="4"
       index="1"
       angular_momentum="0"
       cutoff_radius_index=" 290"
       cutoff_radius="    2.8900000000E+00" >
    0.0000000000E+00   -3.6613774113E-02   -7.3196902745E-02   -1.0971876630E-01
   -1.4614879693E-01   -1.8245650445E-01   -2.1861150215E-01   -2.5458353268E-01
   -2.9034249388E-01   -3.2585846461E-01   -3.6110173049E-01   -3.9604280974E-01
   -4.3065247883E-01   -4.6490179819E-01   -4.9876213783E-01   -5.3220520291E-01
   -5.6520305921E-01   -5.9772815858E-01   -6.2975336419E-01   -6.6125197580E-01
   -6.9219775478E-01   -7.2256494908E-01   -7.5232831800E-01   -7.8146315678E-01
   -8.0994532103E-01   -8.3775125083E-01   -8.6485799479E-01   -8.9124323363E-01
   -9.1688530355E-01   -9.4176321930E-01   -9.6585669691E-01   -9.8914617598E-01
   -1.0116128416E+00   -1.0332386457E+00   -1.0540063283E+00   -1.0738994376E+00
   -1.0929023503E+00   -1.1110002903E+00   -1.1281793486E+00   -1.1444264999E+00
   -1.1597296210E+00   -1.1740775068E+00   -1.1874598866E+00   -1.1998674386E+00
   -1.2112918046E+00   -1.2217256028E+00   -1.2311624404E+00   -1.2395969249E+00
   -1.2470246744E+00   -1.2534423260E+00   -1.2588475458E+00   -1.2632390350E+00
   -1.2666165347E+00   -1.2689808324E+00   -1.2703337648E+00   -1.2706782184E+00
   -1.2700181342E+00   -1.2683585021E+00   -1.2657053648E+00   -1.2620658089E+00
   -1.2574479655E+00   -1.2518610005E+00   -1.2453151091E+00   -1.2378215066E+00
   -1.2293924176E+00   -1.2200410650E+00   -1.2097816558E+00   -1.1986293674E+00
   -1.1866003315E+00   -1.1737116143E+00   -1.1599811996E+00   -1.1454279676E+00
   -1.1300716736E+00   -1.1139329233E+00   -1.0970331470E+00   -1.0793945752E+00
   -1.0610402106E+00   -1.0419937992E+00   -1.0222797995E+00   -1.0019233515E+00
   -9.8095024375E-01   -9.5938687942E-01   -9.3726024132E-01   -9.1459785582E-01
   -8.9142775569E-01   -8.6777844204E-01   -8.4367884533E-01   -8.1915828551E-01
   -7.9424643142E-01   -7.6897325944E-01   -7.4336901148E-01   -7.1746415248E-01
   -6.9128932727E-01   -6.6487531720E-01   -6.3825299632E-01   -6.1145328746E-01