<UPF version="2.0.1">
  <PP_INFO>

 This pseudopotential file has been produced using the code
 ONCVPSP  (Optimized Norm-Conservinng Vanderbilt PSeudopotential)
 scalar-relativistic version 2.1.1, 03/26/2014 by D. R. Hamann
 The code is available through a link at URL www.mat-simresearch.com.
 Documentation with the package provides a full discription of the
 input data below.


 While it is not required under the terms of the GNU GPL, it is
 suggested that you cite D. R. Hamann, Phys. Rev. B 88, 085117 (2013)
 in any publication using these pseudopotentials.


 Copyright 2015 The Regents of the University of California
 
 This work is licensed under the Creative Commons Attribution-ShareAlike 
 4.0 International License. To view a copy of this license, visit 
 http://creativecommons.org/licenses/by-sa/4.0/ or send a letter to 
 Creative Commons, PO Box 1866, Mountain View, CA 94042, USA.
 
 This pseudopotential is part of the Schlipf-Gygi norm-conserving 
 pseudopotential library. Its construction parameters were tuned to 
 reproduce materials of a training set with very high accuracy and 
 should be suitable as a general purpose pseudopotential to treat a 
 variety of different compounds. For details of the construction and 
 testing of the pseudopotential please refer to:
 
 [insert reference to paper here]
 
 We kindly ask that you include this reference in all publications 
 associated to this pseudopotential.


    <PP_INPUTFILE>
# ATOM AND REFERENCE CONFIGURATION
# atsym  z    nc    nv    iexc   psfile
  La 57.00     9     4     4      upf
#
#   n    l    f        energy (Ha)
    1    0    2.00
    2    0    2.00
    2    1    6.00
    3    0    2.00
    3    1    6.00
    3    2   10.00
    4    0    2.00
    4    1    6.00
    4    2   10.00
    5    0    2.00
    5    1    6.00
    5    2    2.00
    6    0    1.00
#
# PSEUDOPOTENTIAL AND OPTIMIZATION
# lmax
    3
#
#   l,   rc,     ep,   ncon, nbas, qcut
    0   2.88630  -1.37183    5    8   4.59909
    1   2.88630  -0.76920    5    8   4.82771
    2   2.92093  -0.07880    5    8   5.74897
    3   2.47169  -0.10070    5    8   7.65618
#
# LOCAL POTENTIAL
# lloc, lpopt,  rc(5),   dvloc0
    4    5   2.27369      0.00000
#
# VANDERBILT-KLEINMAN-BYLANDER PROJECTORs
# l, nproj, debl
    0    2   1.25690
    1    2   1.55615
    2    2   1.82348
    3    2   1.29328
#
# MODEL CORE CHARGE
# icmod, fcfact
    0   0.00000
#
# LOG DERIVATIVE ANALYSIS
# epsh1, epsh2, depsh
   -5.00    3.00    0.02
#
# OUTPUT GRID
# rlmax, drl
    6.00    0.01
#
# TEST CONFIGURATIONS
# ncnf
    0
# nvcnf
#   n    l    f
    </PP_INPUTFILE>
  </PP_INFO>
  <!--                               -->
  <!-- END OF HUMAN READABLE SECTION -->
  <!--                               -->
    <PP_HEADER
       generated="Generated using ONCVPSP code by D. R. Hamann"
       author="Martin Schlipf and Francois Gygi"
       date="150105"
       comment=""
       element="La"
       pseudo_type="NC"
       relativistic="scalar"
       is_ultrasoft="F"
       is_paw="F"
       is_coulomb="F"
       has_so="F"
       has_wfc="F"
       has_gipaw="F"
       core_correction="F"
       functional="PBE"
       z_valence="   11.00"
       total_psenergy="  -3.17459916137E+01"
       rho_cutoff="   6.01000000000E+00"
       l_max="3"
       l_local="-1"
       mesh_size="   602"
       number_of_wfc="0"
       number_of_proj="8"/>
 <PP_MESH>
   <PP_R type="real"  size=" 602" columns="8">
    0.0000    0.0100    0.0200    0.0300    0.0400    0.0500    0.0600    0.0700
    0.0800    0.0900    0.1000    0.1100    0.1200    0.1300    0.1400    0.1500
    0.1600    0.1700    0.1800    0.1900    0.2000    0.2100    0.2200    0.2300
    0.2400    0.2500    0.2600    0.2700    0.2800    0.2900    0.3000    0.3100
    0.3200    0.3300    0.3400    0.3500    0.3600    0.3700    0.3800    0.3900
    0.4000    0.4100    0.4200    0.4300    0.4400    0.4500    0.4600    0.4700
    0.4800    0.4900    0.5000    0.5100    0.5200    0.5300    0.5400    0.5500
    0.5600    0.5700    0.5800    0.5900    0.6000    0.6100    0.6200    0.6300
    0.6400    0.6500    0.6600    0.6700    0.6800    0.6900    0.7000    0.7100
    0.7200    0.7300    0.7400    0.7500    0.7600    0.7700    0.7800    0.7900
    0.8000    0.8100    0.8200    0.8300    0.8400    0.8500    0.8600    0.8700
    0.8800    0.8900    0.9000    0.9100    0.9200    0.9300    0.9400    0.9500
    0.9600    0.9700    0.9800    0.9900    1.0000    1.0100    1.0200    1.0300
    1.0400    1.0500    1.0600    1.0700    1.0800    1.0900    1.1000    1.1100
    1.1200    1.1300    1.1400    1.1500    1.1600    1.1700    1.1800    1.1900
    1.2000    1.2100    1.2200    1.2300    1.2400    1.2500    1.2600    1.2700
    1.2800    1.2900    1.3000    1.3100    1.3200    1.3300    1.3400    1.3500
    1.3600    1.3700    1.3800    1.3900    1.4000    1.4100    1.4200    1.4300
    1.4400    1.4500    1.4600    1.4700    1.4800    1.4900    1.5000    1.5100
    1.5200    1.5300    1.5400    1.5500    1.5600    1.5700    1.5800    1.5900
    1.6000    1.6100    1.6200    1.6300    1.6400    1.6500    1.6600    1.6700
    1.6800    1.6900    1.7000    1.7100    1.7200    1.7300    1.7400    1.7500
    1.7600    1.7700    1.7800    1.7900    1.8000    1.8100    1.8200    1.8300
    1.8400    1.8500    1.8600    1.8700    1.8800    1.8900    1.9000    1.9100
    1.9200    1.9300    1.9400    1.9500    1.9600    1.9700    1.9800    1.9900
    2.0000    2.0100    2.0200    2.0300    2.0400    2.0500    2.0600    2.0700
    2.0800    2.0900    2.1000    2.1100    2.1200    2.1300    2.1400    2.1500
    2.1600    2.1700    2.1800    2.1900    2.2000    2.2100    2.2200    2.2300
    2.2400    2.2500    2.2600    2.2700    2.2800    2.2900    2.3000    2.3100
    2.3200    2.3300    2.3400    2.3500    2.3600    2.3700    2.3800    2.3900
    2.4000    2.4100    2.4200    2.4300    2.4400    2.4500    2.4600    2.4700
    2.4800    2.4900    2.5000    2.5100    2.5200    2.5300    2.5400    2.5500
    2.5600    2.5700    2.5800    2.5900    2.6000    2.6100    2.6200    2.6300
    2.6400    2.6500    2.6600    2.6700    2.6800    2.6900    2.7000    2.7100
    2.7200    2.7300    2.7400    2.7500    2.7600    2.7700    2.7800    2.7900
    2.8000    2.8100    2.8200    2.8300    2.8400    2.8500    2.8600    2.8700
    2.8800    2.8900    2.9000    2.9100    2.9200    2.9300    2.9400    2.9500
    2.9600    2.9700    2.9800    2.9900    3.0000    3.0100    3.0200    3.0300
    3.0400    3.0500    3.0600    3.0700    3.0800    3.0900    3.1000    3.1100
    3.1200    3.1300    3.1400    3.1500    3.1600    3.1700    3.1800    3.1900
    3.2000    3.2100    3.2200    3.2300    3.2400    3.2500    3.2600    3.2700
    3.2800    3.2900    3.3000    3.3100    3.3200    3.3300    3.3400    3.3500
    3.3600    3.3700    3.3800    3.3900    3.4000    3.4100    3.4200    3.4300
    3.4400    3.4500    3.4600    3.4700    3.4800    3.4900    3.5000    3.5100
    3.5200    3.5300    3.5400    3.5500    3.5600    3.5700    3.5800    3.5900
    3.6000    3.6100    3.6200    3.6300    3.6400    3.6500    3.6600    3.6700
    3.6800    3.6900    3.7000    3.7100    3.7200    3.7300    3.7400    3.7500
    3.7600    3.7700    3.7800    3.7900    3.8000    3.8100    3.8200    3.8300
    3.8400    3.8500    3.8600    3.8700    3.8800    3.8900    3.9000    3.9100
    3.9200    3.9300    3.9400    3.9500    3.9600    3.9700    3.9800    3.9900
    4.0000    4.0100    4.0200    4.0300    4.0400    4.0500    4.0600    4.0700
    4.0800    4.0900    4.1000    4.1100    4.1200    4.1300    4.1400    4.1500
    4.1600    4.1700    4.1800    4.1900    4.2000    4.2100    4.2200    4.2300
    4.2400    4.2500    4.2600    4.2700    4.2800    4.2900    4.3000    4.3100
    4.3200    4.3300    4.3400    4.3500    4.3600    4.3700    4.3800    4.3900
    4.4000    4.4100    4.4200    4.4300    4.4400    4.4500    4.4600    4.4700
    4.4800    4.4900    4.5000    4.5100    4.5200    4.5300    4.5400    4.5500
    4.5600    4.5700    4.5800    4.5900    4.6000    4.6100    4.6200    4.6300
    4.6400    4.6500    4.6600    4.6700    4.6800    4.6900    4.7000    4.7100
    4.7200    4.7300    4.7400    4.7500    4.7600    4.7700    4.7800    4.7900
    4.8000    4.8100    4.8200    4.8300    4.8400    4.8500    4.8600    4.8700
    4.8800    4.8900    4.9000    4.9100    4.9200    4.9300    4.9400    4.9500
    4.9600    4.9700    4.9800    4.9900    5.0000    5.0100    5.0200    5.0300
    5.0400    5.0500    5.0600    5.0700    5.0800    5.0900    5.1000    5.1100
    5.1200    5.1300    5.1400    5.1500    5.1600    5.1700    5.1800    5.1900
    5.2000    5.2100    5.2200    5.2300    5.2400    5.2500    5.2600    5.2700
    5.2800    5.2900    5.3000    5.3100    5.3200    5.3300    5.3400    5.3500
    5.3600    5.3700    5.3800    5.3900    5.4000    5.4100    5.4200    5.4300
    5.4400    5.4500    5.4600    5.4700    5.4800    5.4900    5.5000    5.5100
    5.5200    5.5300    5.5400    5.5500    5.5600    5.5700    5.5800    5.5900
    5.6000    5.6100    5.6200    5.6300    5.6400    5.6500    5.6600    5.6700
    5.6800    5.6900    5.7000    5.7100    5.7200    5.7300    5.7400    5.7500
    5.7600    5.7700    5.7800    5.7900    5.8000    5.8100    5.8200    5.8300
    5.8400    5.8500    5.8600    5.8700    5.8800    5.8900    5.9000    5.9100
    5.9200    5.9300    5.9400    5.9500    5.9600    5.9700    5.9800    5.9900
    6.0000    6.0100
   </PP_R>
   <PP_RAB type="real"  size=" 602" columns="8">
    0.0100    0.0100    0.0100    0.0100    0.0100    0.0100    0.0100    0.0100
    0.0100    0.0100    0.0100    0.0100    0.0100    0.0100    0.0100    0.0100
    0.0100    0.0100    0.0100    0.0100    0.0100    0.0100    0.0100    0.0100
    0.0100    0.0100    0.0100    0.0100    0.0100    0.0100    0.0100    0.0100
    0.0100    0.0100    0.0100    0.0100    0.0100    0.0100    0.0100    0.0100
    0.0100    0.0100    0.0100    0.0100    0.0100    0.0100    0.0100    0.0100
    0.0100    0.0100    0.0100    0.0100    0.0100    0.0100    0.0100    0.0100
    0.0100    0.0100    0.0100    0.0100    0.0100    0.0100    0.0100    0.0100
    0.0100    0.0100    0.0100    0.0100    0.0100    0.0100    0.0100    0.0100
    0.0100    0.0100    0.0100    0.0100    0.0100    0.0100    0.0100    0.0100
    0.0100    0.0100    0.0100    0.0100    0.0100    0.0100    0.0100    0.0100
    0.0100    0.0100    0.0100    0.0100    0.0100    0.0100    0.0100    0.0100
    0.0100    0.0100    0.0100    0.0100    0.0100    0.0100    0.0100    0.0100
    0.0100    0.0100    0.0100    0.0100    0.0100    0.0100    0.0100    0.0100
    0.0100    0.0100    0.0100    0.0100    0.0100    0.0100    0.0100    0.0100
    0.0100    0.0100    0.0100    0.0100    0.0100    0.0100    0.0100    0.0100
    0.0100    0.0100    0.0100    0.0100    0.0100    0.0100    0.0100    0.0100
    0.0100    0.0100    0.0100    0.0100    0.0100    0.0100    0.0100    0.0100
    0.0100    0.0100    0.0100    0.0100    0.0100    0.0100    0.0100    0.0100
    0.0100    0.0100    0.0100    0.0100    0.0100    0.0100    0.0100    0.0100
    0.0100    0.0100    0.0100    0.0100    0.0100    0.0100    0.0100    0.0100
    0.0100    0.0100    0.0100    0.0100    0.0100    0.0100    0.0100    0.0100
    0.0100    0.0100    0.0100    0.0100    0.0100    0.0100    0.0100    0.0100
    0.0100    0.0100    0.0100    0.0100    0.0100    0.0100    0.0100    0.0100
    0.0100    0.0100    0.0100    0.0100    0.0100    0.0100    0.0100    0.0100
    0.0100    0.0100    0.0100    0.0100    0.0100    0.0100    0.0100    0.0100
    0.0100    0.0100    0.0100    0.0100    0.0100    0.0100    0.0100    0.0100
    0.0100    0.0100    0.0100    0.0100    0.0100    0.0100    0.0100    0.0100
    0.0100    0.0100    0.0100    0.0100    0.0100    0.0100    0.0100    0.0100
    0.0100    0.0100    0.0100    0.0100    0.0100    0.0100    0.0100    0.0100
    0.0100    0.0100    0.0100    0.0100    0.0100    0.0100    0.0100    0.0100
    0.0100    0.0100    0.0100    0.0100    0.0100    0.0100    0.0100    0.0100
    0.0100    0.0100    0.0100    0.0100    0.0100    0.0100    0.0100    0.0100
    0.0100    0.0100    0.0100    0.0100    0.0100    0.0100    0.0100    0.0100
    0.0100    0.0100    0.0100    0.0100    0.0100    0.0100    0.0100    0.0100
    0.0100    0.0100    0.0100    0.0100    0.0100    0.0100    0.0100    0.0100
    0.0100    0.0100    0.0100    0.0100    0.0100    0.0100    0.0100    0.0100
    0.0100    0.0100    0.0100    0.0100    0.0100    0.0100    0.0100    0.0100
    0.0100    0.0100    0.0100    0.0100    0.0100    0.0100    0.0100    0.0100
    0.0100    0.0100    0.0100    0.0100    0.0100    0.0100    0.0100    0.0100
    0.0100    0.0100    0.0100    0.0100    0.0100    0.0100    0.0100    0.0100
    0.0100    0.0100    0.0100    0.0100    0.0100    0.0100    0.0100    0.0100
    0.0100    0.0100    0.0100    0.0100    0.0100    0.0100    0.0100    0.0100
    0.0100    0.0100    0.0100    0.0100    0.0100    0.0100    0.0100    0.0100
    0.0100    0.0100    0.0100    0.0100    0.0100    0.0100    0.0100    0.0100
    0.0100    0.0100    0.0100    0.0100    0.0100    0.0100    0.0100    0.0100
    0.0100    0.0100    0.0100    0.0100    0.0100    0.0100    0.0100    0.0100
    0.0100    0.0100    0.0100    0.0100    0.0100    0.0100    0.0100    0.0100
    0.0100    0.0100    0.0100    0.0100    0.0100    0.0100    0.0100    0.0100
    0.0100    0.0100    0.0100    0.0100    0.0100    0.0100    0.0100    0.0100
    0.0100    0.0100    0.0100    0.0100    0.0100    0.0100    0.0100    0.0100
    0.0100    0.0100    0.0100    0.0100    0.0100    0.0100    0.0100    0.0100
    0.0100    0.0100    0.0100    0.0100    0.0100    0.0100    0.0100    0.0100
    0.0100    0.0100    0.0100    0.0100    0.0100    0.0100    0.0100    0.0100
    0.0100    0.0100    0.0100    0.0100    0.0100    0.0100    0.0100    0.0100
    0.0100    0.0100    0.0100    0.0100    0.0100    0.0100    0.0100    0.0100
    0.0100    0.0100    0.0100    0.0100    0.0100    0.0100    0.0100    0.0100
    0.0100    0.0100    0.0100    0.0100    0.0100    0.0100    0.0100    0.0100
    0.0100    0.0100    0.0100    0.0100    0.0100    0.0100    0.0100    0.0100
    0.0100    0.0100    0.0100    0.0100    0.0100    0.0100    0.0100    0.0100
    0.0100    0.0100    0.0100    0.0100    0.0100    0.0100    0.0100    0.0100
    0.0100    0.0100    0.0100    0.0100    0.0100    0.0100    0.0100    0.0100
    0.0100    0.0100    0.0100    0.0100    0.0100    0.0100    0.0100    0.0100
    0.0100    0.0100    0.0100    0.0100    0.0100    0.0100    0.0100    0.0100
    0.0100    0.0100    0.0100    0.0100    0.0100    0.0100    0.0100    0.0100
    0.0100    0.0100    0.0100    0.0100    0.0100    0.0100    0.0100    0.0100
    0.0100    0.0100    0.0100    0.0100    0.0100    0.0100    0.0100    0.0100
    0.0100    0.0100    0.0100    0.0100    0.0100    0.0100    0.0100    0.0100
    0.0100    0.0100    0.0100    0.0100    0.0100    0.0100    0.0100    0.0100
    0.0100    0.0100    0.0100    0.0100    0.0100    0.0100    0.0100    0.0100
    0.0100    0.0100    0.0100    0.0100    0.0100    0.0100    0.0100    0.0100
    0.0100    0.0100    0.0100    0.0100    0.0100    0.0100    0.0100    0.0100
    0.0100    0.0100    0.0100    0.0100    0.0100    0.0100    0.0100    0.0100
    0.0100    0.0100    0.0100    0.0100    0.0100    0.0100    0.0100    0.0100
    0.0100    0.0100    0.0100    0.0100    0.0100    0.0100    0.0100    0.0100
    0.0100    0.0100
   </PP_RAB>
 </PP_MESH>
  <PP_LOCAL type="real"  size=" 602" columns="4">
   -2.1547838871E+01   -2.1549997609E+01   -2.1557197293E+01   -2.1568541916E+01
   -2.1583135469E+01   -2.1599877875E+01   -2.1617582468E+01   -2.1635086504E+01
   -2.1651340209E+01   -2.1665466790E+01   -2.1676792475E+01   -2.1684850628E+01
   -2.1689366597E+01   -2.1690230573E+01   -2.1687464866E+01   -2.1681190570E+01
   -2.1671596841E+01   -2.1658914646E+01   -2.1643395633E+01   -2.1625296095E+01
   -2.1604865499E+01   -2.1582338863E+01   -2.1557932211E+01   -2.1531840361E+01
   -2.1504236404E+01   -2.1475272324E+01   -2.1445080398E+01   -2.1413774953E+01
   -2.1381454350E+01   -2.1348202972E+01   -2.1314093128E+01   -2.1279186812E+01
   -2.1243537274E+01   -2.1207190388E+01   -2.1170185858E+01   -2.1132558206E+01
   -2.1094337621E+01   -2.1055550644E+01   -2.1016220748E+01   -2.0976368800E+01
   -2.0936013420E+01   -2.0895171297E+01   -2.0853857423E+01   -2.0812085285E+01
   -2.0769867021E+01   -2.0727213546E+01   -2.0684134652E+01   -2.0640639098E+01
   -2.0596734675E+01   -2.0552428271E+01   -2.0507725932E+01   -2.0462632907E+01
   -2.0417153689E+01   -2.0371292067E+01   -2.0325051172E+01   -2.0278433495E+01
   -2.0231440958E+01   -2.0184074919E+01   -2.0136336241E+01   -2.0088225299E+01
   -2.0039742043E+01   -1.9990886009E+01   -1.9941656371E+01   -1.9892051972E+01
   -1.9842071344E+01   -1.9791712757E+01   -1.9740974247E+01   -1.9689853636E+01
   -1.9638348575E+01   -1.9586456570E+01   -1.9534175012E+01   -1.9481501202E+01
   -1.9428432383E+01   -1.9374965767E+01   -1.9321098564E+01   -1.9266828004E+01
   -1.9212151367E+01   -1.9157066011E+01   -1.9101569393E+01   -1.9045659096E+01
   -1.8989332853E+01   -1.8932588569E+01   -1.8875424349E+01   -1.8817838515E+01
   -1.8759829629E+01   -1.8701396517E+01   -1.8642538281E+01   -1.8583254329E+01
   -1.8523544381E+01   -1.8463408494E+01   -1.8402847073E+01   -1.8341860884E+01
   -1.8280451073E+01   -1.8218619170E+01   -1.8156367095E+01   -1.8093697176E+01
   -1.8030612164E+01   -1.7967115218E+01   -1.7903209919E+01   -1.7838900269E+01
   -1.7774190695E+01   -1.7709086039E+01   -1.7643591551E+01   -1.7577712935E+01
   -1.7511456290E+01   -1.7444828115E+01   -1.7377835309E+01   -1.7310485123E+01
   -1.7242785251E+01   -1.7174743731E+01   -1.7106368955E+01   -1.7037669635E+01
   -1.6968654832E+01   -1.6899333954E+01   -1.6829716687E+01   -1.6759812980E+01
   -1.6689633086E+01   -1.6619187534E+01   -1.6548487074E+01   -1.6477542643E+01
   -1.6406365473E+01   -1.6334966956E+01   -1.6263358635E+01   -1.6191552261E+01
   -1.6119559739E+01   -1.6047393079E+01   -1.5975064435E+01   -1.5902586084E+01
   -1.5829970369E+01   -1.5757229734E+01   -1.5684376700E+01   -1.5611423823E+01
   -1.5538383726E+01   -1.5465269058E+01   -1.5392092487E+01   -1.5318866703E+01
   -1.5245604387E+01   -1.5172318225E+01   -1.5099020868E+01   -1.5025724961E+01
   -1.4952443098E+01   -1.4879187822E+01   -1.4805971663E+01   -1.4732807028E+01
   -1.4659706318E+01   -1.4586681815E+01   -1.4513745728E+01   -1.4440910211E+01
   -1.4368187235E+01   -1.4295588808E+01   -1.4223126659E+01   -1.4150812551E+01
   -1.4078658021E+01   -1.4006674531E+01   -1.3934873410E+01   -1.3863265788E+01
   -1.3791862772E+01   -1.3720675129E+01   -1.3649713723E+01   -1.3578988946E+01
   -1.3508511377E+01   -1.3438291042E+01   -1.3368338164E+01   -1.3298662427E+01
   -1.3229273664E+01   -1.3160181193E+01   -1.3091394442E+01   -1.3022922334E+01
   -1.2954773884E+01   -1.2886957585E+01   -1.2819482035E+01   -1.2752355265E+01
   -1.2685585453E+01   -1.2619180126E+01   -1.2553147050E+01   -1.2487493207E+01
   -1.2422225955E+01   -1.2357351690E+01   -1.2292877376E+01   -1.2228808823E+01
   -1.2165152471E+01   -1.2101913669E+01   -1.2039098227E+01   -1.1976711086E+01
   -1.1914757354E+01   -1.1853241609E+01   -1.1792168191E+01   -1.1731541356E+01
   -1.1671364618E+01   -1.1611641952E+01   -1.1552376064E+01   -1.1493570472E+01
   -1.1435227348E+01   -1.1377349397E+01   -1.1319938571E+01   -1.1262996599E+01
   -1.1206525286E+01   -1.1150525361E+01   -1.1094998433E+01   -1.1039944513E+01
   -1.0985364369E+01   -1.0931257954E+01   -1.0877624918E+01   -1.0824465242E+01
   -1.0771777583E+01   -1.0719561508E+01   -1.0667815320E+01   -1.0616537546E+01
   -1.0565726640E+01   -1.0515380023E+01   -1.0465496005E+01   -1.0416071501E+01
   -1.0367103826E+01   -1.0318590167E+01   -1.0270526723E+01   -1.0222910552E+01
   -1.0175737454E+01   -1.0129003452E+01   -1.0082704733E+01   -1.0036836286E+01
   -9.9913939222E+00   -9.9463725901E+00   -9.9017669288E+00   -9.8575723672E+00
   -9.8137826870E+00   -9.7703924001E+00   -9.7273958518E+00   -9.6847864692E+00
   -9.6425580887E+00   -9.6007044888E+00   -9.5592194294E+00   -9.5180962493E+00
   -9.4773294918E+00   -9.4369133308E+00   -9.3968416565E+00   -9.3571095966E+00
   -9.3177116181E+00   -9.2786423784E+00   -9.2398973518E+00   -9.2014713651E+00
   -9.1633597672E+00   -9.1255583584E+00   -9.0880623341E+00   -9.0508676402E+00
   -9.0139703881E+00   -8.9773661429E+00   -8.9410513461E+00   -8.9050224073E+00
   -8.8692752536E+00   -8.8338067230E+00   -8.7986135092E+00   -8.7636918859E+00
   -8.7290389966E+00   -8.6946518023E+00   -8.6605269013E+00   -8.6266616637E+00
   -8.5930532970E+00   -8.5596986981E+00   -8.5265953976E+00   -8.4937408249E+00
   -8.4611321465E+00   -8.4287670008E+00   -8.3966430114E+00   -8.3647575820E+00
   -8.3331084209E+00   -8.3016933139E+00   -8.2705098676E+00   -8.2395558357E+00
   -8.2088291312E+00   -8.1783275258E+00   -8.1480488090E+00   -8.1179909818E+00
   -8.0881519396E+00   -8.0585295119E+00   -8.0291217466E+00   -7.9999266055E+00
   -7.9709420068E+00   -7.9421659709E+00   -7.9135965011E+00   -7.8852315856E+00
   -7.8570692204E+00   -7.8291074091E+00   -7.8013441559E+00   -7.7737774760E+00
   -7.7464053260E+00   -7.7192256873E+00   -7.6922365444E+00   -7.6654358752E+00
   -7.6388216582E+00   -7.6123918016E+00   -7.5861442729E+00   -7.5600772691E+00
   -7.5341888682E+00   -7.5084768895E+00   -7.4829397766E+00   -7.4575757871E+00
   -7.4323830779E+00   -7.4073598788E+00   -7.3825046130E+00   -7.3578155978E+00
   -7.3332910196E+00   -7.3089293671E+00   -7.2847290574E+00   -7.2606884420E+00
   -7.2368058627E+00   -7.2130798987E+00   -7.1895090170E+00   -7.1660915856E+00
   -7.1428261566E+00   -7.1197113280E+00   -7.0967456393E+00   -7.0739274924E+00
   -7.0512556208E+00   -7.0287286380E+00   -7.0063451155E+00   -6.9841035992E+00
   -6.9620028712E+00   -6.9400416028E+00   -6.9182183975E+00   -6.8965319464E+00
   -6.8749810593E+00   -6.8535644695E+00   -6.8322808178E+00   -6.8111289189E+00
   -6.7901076136E+00   -6.7692156940E+00   -6.7484518436E+00   -6.7278149795E+00
   -6.7073039777E+00   -6.6869176862E+00   -6.6666548355E+00   -6.6465144254E+00
   -6.6264953712E+00   -6.6065965746E+00   -6.5868168166E+00   -6.5671551611E+00
   -6.5476105674E+00   -6.5281819883E+00   -6.5088682581E+00   -6.4896684880E+00
   -6.4705816857E+00   -6.4516068526E+00   -6.4327428790E+00   -6.4139889080E+00
   -6.3953439990E+00   -6.3768072000E+00   -6.3583774605E+00   -6.3400539399E+00
   -6.3218357534E+00   -6.3037219933E+00   -6.2857116714E+00   -6.2678039492E+00
   -6.2499980007E+00   -6.2322929606E+00   -6.2146879065E+00   -6.1971819882E+00
   -6.1797744414E+00   -6.1624644411E+00   -6.1452511341E+00   -6.1281336468E+00
   -6.1111112779E+00   -6.0941832409E+00   -6.0773487492E+00   -6.0606069132E+00
   -6.0439570776E+00   -6.0273984984E+00   -6.0109304256E+00   -5.9945520434E+00
   -5.9782626445E+00   -5.9620615578E+00   -5.9459480681E+00   -5.9299214382E+00
   -5.9139808986E+00   -5.8981258507E+00   -5.8823556130E+00   -5.8666695037E+00
   -5.8510667631E+00   -5.8355467854E+00   -5.8201089465E+00   -5.8047525964E+00
   -5.7894770589E+00   -5.7742816426E+00   -5.7591658029E+00   -5.7441289201E+00
   -5.7291703746E+00   -5.7142894777E+00   -5.6994856681E+00   -5.6847583853E+00
   -5.6701070387E+00   -5.6555310289E+00   -5.6410296892E+00   -5.6266025426E+00
   -5.6122490260E+00   -5.5979685761E+00   -5.5837605897E+00   -5.5696244989E+00
   -5.5555598219E+00   -5.5415660217E+00   -5.5276425612E+00   -5.5137888392E+00
   -5.5000043714E+00   -5.4862886743E+00   -5.4726412358E+00   -5.4590615440E+00
   -5.4455490056E+00   -5.4321032036E+00   -5.4187236575E+00   -5.4054098792E+00
   -5.3921613734E+00   -5.3789775810E+00   -5.3658581161E+00   -5.3528025132E+00
   -5.3398103069E+00   -5.3268810156E+00   -5.3140141244E+00   -5.3012092588E+00
   -5.2884659751E+00   -5.2757838295E+00   -5.2631623587E+00   -5.2506010787E+00
   -5.2380996308E+00   -5.2256575917E+00   -5.2132745384E+00   -5.2009500298E+00
   -5.1886836010E+00   -5.1764749124E+00   -5.1643235607E+00   -5.1522291425E+00
   -5.1401912426E+00   -5.1282094041E+00   -5.1162833100E+00   -5.1044125759E+00
   -5.0925968171E+00   -5.0808356483E+00   -5.0691286097E+00   -5.0574754104E+00
   -5.0458756838E+00   -5.0343290632E+00   -5.0228351819E+00   -5.0113936114E+00
   -5.0000040459E+00   -4.9886661505E+00   -4.9773795754E+00   -4.9661439711E+00
   -4.9549589462E+00   -4.9438241682E+00   -4.9327393372E+00   -4.9217041200E+00
   -4.9107181831E+00   -4.8997811761E+00   -4.8888927307E+00   -4.8780525846E+00
   -4.8672604201E+00   -4.8565159194E+00   -4.8458187647E+00   -4.8351685783E+00
   -4.8245651036E+00   -4.8140080487E+00   -4.8034971107E+00   -4.7930319864E+00
   -4.7826123449E+00   -4.7722378747E+00   -4.7619083289E+00   -4.7516234185E+00
   -4.7413828549E+00   -4.7311863490E+00   -4.7210335524E+00   -4.7109242395E+00
   -4.7008581429E+00   -4.6908349872E+00   -4.6808544969E+00   -4.6709163764E+00
   -4.6610203280E+00   -4.6511661352E+00   -4.6413535356E+00   -4.6315822666E+00
   -4.6218520655E+00   -4.6121626274E+00   -4.6025137172E+00   -4.5929051072E+00
   -4.5833365472E+00   -4.5738077867E+00   -4.5643185755E+00   -4.5548686045E+00
   -4.5454576886E+00   -4.5360855934E+00   -4.5267520801E+00   -4.5174569100E+00
   -4.5081998349E+00   -4.4989805751E+00   -4.4897989552E+00   -4.4806547475E+00
   -4.4715477245E+00   -4.4624776586E+00   -4.4534443040E+00   -4.4444474120E+00
   -4.4354868081E+00   -4.4265622752E+00   -4.4176735964E+00   -4.4088205547E+00
   -4.4000029109E+00   -4.3912204370E+00   -4.3824729629E+00   -4.3737602820E+00
   -4.3650821874E+00   -4.3564384721E+00   -4.3478289074E+00   -4.3392532760E+00
   -4.3307114165E+00   -4.3222031318E+00   -4.3137282247E+00   -4.3052864979E+00
   -4.2968777365E+00   -4.2885017249E+00   -4.2801583139E+00   -4.2718473154E+00
   -4.2635685415E+00   -4.2553218041E+00   -4.2471069056E+00   -4.2389236236E+00
   -4.2307718241E+00   -4.2226513279E+00   -4.2145619557E+00   -4.2065035282E+00
   -4.1984758662E+00   -4.1904787395E+00   -4.1825120252E+00   -4.1745755548E+00
   -4.1666691573E+00   -4.1587926619E+00   -4.1509458976E+00   -4.1431286583E+00
   -4.1353407961E+00   -4.1275821653E+00   -4.1198526031E+00   -4.1121519466E+00
   -4.1044800327E+00   -4.0968366828E+00   -4.0892217163E+00   -4.0816350134E+00
   -4.0740764187E+00   -4.0665457770E+00   -4.0590429327E+00   -4.0515677307E+00
   -4.0441199725E+00   -4.0366995449E+00   -4.0293063069E+00   -4.0219401101E+00
   -4.0146008067E+00   -4.0072882483E+00   -4.0000022699E+00   -3.9927427106E+00
   -3.9855094613E+00   -3.9783023807E+00   -3.9711213276E+00   -3.9639661608E+00
   -3.9568367390E+00   -3.9497328853E+00   -3.9426544870E+00   -3.9356014216E+00
   -3.9285735543E+00   -3.9215707505E+00   -3.9145928757E+00   -3.9076397916E+00
   -3.9007113248E+00   -3.8938073895E+00   -3.8869278576E+00   -3.8800726005E+00
   -3.8732414900E+00   -3.8664343977E+00   -3.8596511805E+00   -3.8528916956E+00
   -3.8461558515E+00   -3.8394435260E+00   -3.8327545965E+00   -3.8260889408E+00
   -3.8194464365E+00   -3.8128269394E+00   -3.8062303285E+00   -3.7996565102E+00
   -3.7931053677E+00   -3.7865767845E+00   -3.7800706438E+00   -3.7735868289E+00
   -3.7671251985E+00   -3.7606856445E+00   -3.7542680748E+00   -3.7478723780E+00
   -3.7414984430E+00   -3.7351461585E+00   -3.7288154132E+00   -3.7225060718E+00
   -3.7162180314E+00   -3.7099512046E+00   -3.7037054852E+00   -3.6974807672E+00
   -3.6912769446E+00   -3.6850939112E+00   -3.6789315411E+00   -3.6727897288E+00
   -3.6666683948E+00   -3.6605674380E+00
  </PP_LOCAL>
 <PP_NONLOCAL>
   <PP_BETA.1
       type="real"
       size=" 602"
       columns="4"
       index="1"
       angular_momentum="0"
       cutoff_radius_index=" 296"
       cutoff_radius="    2.9500000000E+00" >
    0.0000000000E+00   -2.9513095518E-02   -5.9013685485E-02   -8.8489244904E-02
   -1.1792721001E-01   -1.4731495915E-01   -1.7663979404E-01   -2.0588892146E-01
   -2.3504943549E-01   -2.6410830042E-01   -2.9305233450E-01   -3.2186819446E-01
   -3.5054236112E-01   -3.7906112600E-01   -4.0741057909E-01   -4.3557659797E-01
   -4.6354483819E-01   -4.9130072508E-01   -5.1882944705E-01   -5.4611595054E-01
   -5.7314493646E-01   -5.9990085842E-01   -6.2636792265E-01   -6.5253008975E-01
   -6.7837107819E-01   -7.0387436971E-01   -7.2902321661E-01   -7.5380065090E-01
   -7.7818949539E-01   -8.0217237671E-01   -8.2573174015E-01   -8.4884986654E-01
   -8.7150889084E-01   -8.9369082288E-01   -9.1537756949E-01   -9.3655095890E-01
   -9.5719276637E-01   -9.7728474225E-01   -9.9680864072E-01   -1.0157462506E+00
   -1.0340794282E+00   -1.0517901306E+00   -1.0688604504E+00   -1.0852726527E+00
   -1.1010092117E+00   -1.1160528497E+00   -1.1303865763E+00   -1.1439937278E+00
   -1.1568580097E+00   -1.1689635373E+00   -1.1802948774E+00   -1.1908370878E+00
   -1.2005757673E+00   -1.2094970909E+00   -1.2175878516E+00   -1.2248355131E+00
   -1.2312282332E+00   -1.2367549287E+00   -1.2414052887E+00   -1.2451698444E+00
   -1.2480399776E+00   -1.2500079852E+00   -1.2510670999E+00   -1.2512115231E+00
   -1.2504364792E+00   -1.2487382254E+00   -1.2461140843E+00   -1.2425624948E+00
   -1.2380830153E+00   -1.2326763540E+00   -1.2263443896E+00   -1.2190902075E+00
   -1.2109180986E+00   -1.2018335806E+00   -1.1918434109E+00   -1.1809555958E+00
   -1.1691793968E+00   -1.1565253436E+00   -1.1430052248E+00   -1.1286320902E+00
   -1.1134202467E+00   -1.0973852509E+00   -1.0805438988E+00   -1.0629142125E+00
   -1.0445154238E+00   -1.0253679547E+00   -1.0054933951E+00   -9.8491447700E-01