<UPF version="2.0.1">
  <PP_INFO>

 This pseudopotential file has been produced using the code
 ONCVPSP  (Optimized Norm-Conservinng Vanderbilt PSeudopotential)
 scalar-relativistic version 2.1.1, 03/26/2014 by D. R. Hamann
 The code is available through a link at URL www.mat-simresearch.com.
 Documentation with the package provides a full discription of the
 input data below.


 While it is not required under the terms of the GNU GPL, it is
 suggested that you cite D. R. Hamann, Phys. Rev. B 88, 085117 (2013)
 in any publication using these pseudopotentials.


 Copyright 2015 The Regents of the University of California
 
 This work is licensed under the Creative Commons Attribution-ShareAlike 
 4.0 International License. To view a copy of this license, visit 
 http://creativecommons.org/licenses/by-sa/4.0/ or send a letter to 
 Creative Commons, PO Box 1866, Mountain View, CA 94042, USA.
 
 This pseudopotential is part of the Schlipf-Gygi norm-conserving 
 pseudopotential library. Its construction parameters were tuned to 
 reproduce materials of a training set with very high accuracy and 
 should be suitable as a general purpose pseudopotential to treat a 
 variety of different compounds. For details of the construction and 
 testing of the pseudopotential please refer to:
 
 [insert reference to paper here]
 
 We kindly ask that you include this reference in all publications 
 associated to this pseudopotential.


    <PP_INPUTFILE>
# ATOM AND REFERENCE CONFIGURATION
# atsym  z    nc    nv    iexc   psfile
  Li  3.00     0     2     4      upf
#
#   n    l    f        energy (Ha)
    1    0    2.00
    2    0    1.00
#
# PSEUDOPOTENTIAL AND OPTIMIZATION
# lmax
    1
#
#   l,   rc,     ep,   ncon, nbas, qcut
    0   1.74553  -1.90562    5    8   7.75888
    1   1.40824   0.11292    5    8  11.11410
#
# LOCAL POTENTIAL
# lloc, lpopt,  rc(5),   dvloc0
    4    5   0.89499      0.00000
#
# VANDERBILT-KLEINMAN-BYLANDER PROJECTORs
# l, nproj, debl
    0    2   1.80000
    1    2   1.03347
#
# MODEL CORE CHARGE
# icmod, fcfact
    0   0.00000
#
# LOG DERIVATIVE ANALYSIS
# epsh1, epsh2, depsh
   -5.00    3.00    0.02
#
# OUTPUT GRID
# rlmax, drl
    6.00    0.01
#
# TEST CONFIGURATIONS
# ncnf
    0
# nvcnf
#   n    l    f
    </PP_INPUTFILE>
  </PP_INFO>
  <!--                               -->
  <!-- END OF HUMAN READABLE SECTION -->
  <!--                               -->
    <PP_HEADER
       generated="Generated using ONCVPSP code by D. R. Hamann"
       author="Martin Schlipf and Francois Gygi"
       date="150105"
       comment=""
       element="Li"
       pseudo_type="NC"
       relativistic="scalar"
       is_ultrasoft="F"
       is_paw="F"
       is_coulomb="F"
       has_so="F"
       has_wfc="F"
       has_gipaw="F"
       core_correction="F"
       functional="PBE"
       z_valence="    3.00"
       total_psenergy="  -7.05359701019E+00"
       rho_cutoff="   6.01000000000E+00"
       l_max="1"
       l_local="-1"
       mesh_size="   602"
       number_of_wfc="0"
       number_of_proj="4"/>
 <PP_MESH>
   <PP_R type="real"  size=" 602" columns="8">
    0.0000    0.0100    0.0200    0.0300    0.0400    0.0500    0.0600    0.0700
    0.0800    0.0900    0.1000    0.1100    0.1200    0.1300    0.1400    0.1500
    0.1600    0.1700    0.1800    0.1900    0.2000    0.2100    0.2200    0.2300
    0.2400    0.2500    0.2600    0.2700    0.2800    0.2900    0.3000    0.3100
    0.3200    0.3300    0.3400    0.3500    0.3600    0.3700    0.3800    0.3900
    0.4000    0.4100    0.4200    0.4300    0.4400    0.4500    0.4600    0.4700
    0.4800    0.4900    0.5000    0.5100    0.5200    0.5300    0.5400    0.5500
    0.5600    0.5700    0.5800    0.5900    0.6000    0.6100    0.6200    0.6300
    0.6400    0.6500    0.6600    0.6700    0.6800    0.6900    0.7000    0.7100
    0.7200    0.7300    0.7400    0.7500    0.7600    0.7700    0.7800    0.7900
    0.8000    0.8100    0.8200    0.8300    0.8400    0.8500    0.8600    0.8700
    0.8800    0.8900    0.9000    0.9100    0.9200    0.9300    0.9400    0.9500
    0.9600    0.9700    0.9800    0.9900    1.0000    1.0100    1.0200    1.0300
    1.0400    1.0500    1.0600    1.0700    1.0800    1.0900    1.1000    1.1100
    1.1200    1.1300    1.1400    1.1500    1.1600    1.1700    1.1800    1.1900
    1.2000    1.2100    1.2200    1.2300    1.2400    1.2500    1.2600    1.2700
    1.2800    1.2900    1.3000    1.3100    1.3200    1.3300    1.3400    1.3500
    1.3600    1.3700    1.3800    1.3900    1.4000    1.4100    1.4200    1.4300
    1.4400    1.4500    1.4600    1.4700    1.4800    1.4900    1.5000    1.5100
    1.5200    1.5300    1.5400    1.5500    1.5600    1.5700    1.5800    1.5900
    1.6000    1.6100    1.6200    1.6300    1.6400    1.6500    1.6600    1.6700
    1.6800    1.6900    1.7000    1.7100    1.7200    1.7300    1.7400    1.7500
    1.7600    1.7700    1.7800    1.7900    1.8000    1.8100    1.8200    1.8300
    1.8400    1.8500    1.8600    1.8700    1.8800    1.8900    1.9000    1.9100
    1.9200    1.9300    1.9400    1.9500    1.9600    1.9700    1.9800    1.9900
    2.0000    2.0100    2.0200    2.0300    2.0400    2.0500    2.0600    2.0700
    2.0800    2.0900    2.1000    2.1100    2.1200    2.1300    2.1400    2.1500
    2.1600    2.1700    2.1800    2.1900    2.2000    2.2100    2.2200    2.2300
    2.2400    2.2500    2.2600    2.2700    2.2800    2.2900    2.3000    2.3100
    2.3200    2.3300    2.3400    2.3500    2.3600    2.3700    2.3800    2.3900
    2.4000    2.4100    2.4200    2.4300    2.4400    2.4500    2.4600    2.4700
    2.4800    2.4900    2.5000    2.5100    2.5200    2.5300    2.5400    2.5500
    2.5600    2.5700    2.5800    2.5900    2.6000    2.6100    2.6200    2.6300
    2.6400    2.6500    2.6600    2.6700    2.6800    2.6900    2.7000    2.7100
    2.7200    2.7300    2.7400    2.7500    2.7600    2.7700    2.7800    2.7900
    2.8000    2.8100    2.8200    2.8300    2.8400    2.8500    2.8600    2.8700
    2.8800    2.8900    2.9000    2.9100    2.9200    2.9300    2.9400    2.9500
    2.9600    2.9700    2.9800    2.9900    3.0000    3.0100    3.0200    3.0300
    3.0400    3.0500    3.0600    3.0700    3.0800    3.0900    3.1000    3.1100
    3.1200    3.1300    3.1400    3.1500    3.1600    3.1700    3.1800    3.1900
    3.2000    3.2100    3.2200    3.2300    3.2400    3.2500    3.2600    3.2700
    3.2800    3.2900    3.3000    3.3100    3.3200    3.3300    3.3400    3.3500
    3.3600    3.3700    3.3800    3.3900    3.4000    3.4100    3.4200    3.4300
    3.4400    3.4500    3.4600    3.4700    3.4800    3.4900    3.5000    3.5100
    3.5200    3.5300    3.5400    3.5500    3.5600    3.5700    3.5800    3.5900
    3.6000    3.6100    3.6200    3.6300    3.6400    3.6500    3.6600    3.6700
    3.6800    3.6900    3.7000    3.7100    3.7200    3.7300    3.7400    3.7500
    3.7600    3.7700    3.7800    3.7900    3.8000    3.8100    3.8200    3.8300
    3.8400    3.8500    3.8600    3.8700    3.8800    3.8900    3.9000    3.9100
    3.9200    3.9300    3.9400    3.9500    3.9600    3.9700    3.9800    3.9900
    4.0000    4.0100    4.0200    4.0300    4.0400    4.0500    4.0600    4.0700
    4.0800    4.0900    4.1000    4.1100    4.1200    4.1300    4.1400    4.1500
    4.1600    4.1700    4.1800    4.1900    4.2000    4.2100    4.2200    4.2300
    4.2400    4.2500    4.2600    4.2700    4.2800    4.2900    4.3000    4.3100
    4.3200    4.3300    4.3400    4.3500    4.3600    4.3700    4.3800    4.3900
    4.4000    4.4100    4.4200    4.4300    4.4400    4.4500    4.4600    4.4700
    4.4800    4.4900    4.5000    4.5100    4.5200    4.5300    4.5400    4.5500
    4.5600    4.5700    4.5800    4.5900    4.6000    4.6100    4.6200    4.6300
    4.6400    4.6500    4.6600    4.6700    4.6800    4.6900    4.7000    4.7100
    4.7200    4.7300    4.7400    4.7500    4.7600    4.7700    4.7800    4.7900
    4.8000    4.8100    4.8200    4.8300    4.8400    4.8500    4.8600    4.8700
    4.8800    4.8900    4.9000    4.9100    4.9200    4.9300    4.9400    4.9500
    4.9600    4.9700    4.9800    4.9900    5.0000    5.0100    5.0200    5.0300
    5.0400    5.0500    5.0600    5.0700    5.0800    5.0900    5.1000    5.1100
    5.1200    5.1300    5.1400    5.1500    5.1600    5.1700    5.1800    5.1900
    5.2000    5.2100    5.2200    5.2300    5.2400    5.2500    5.2600    5.2700
    5.2800    5.2900    5.3000    5.3100    5.3200    5.3300    5.3400    5.3500
    5.3600    5.3700    5.3800    5.3900    5.4000    5.4100    5.4200    5.4300
    5.4400    5.4500    5.4600    5.4700    5.4800    5.4900    5.5000    5.5100
    5.5200    5.5300    5.5400    5.5500    5.5600    5.5700    5.5800    5.5900
    5.6000    5.6100    5.6200    5.6300    5.6400    5.6500    5.6600    5.6700
    5.6800    5.6900    5.7000    5.7100    5.7200    5.7300    5.7400    5.7500
    5.7600    5.7700    5.7800    5.7900    5.8000    5.8100    5.8200    5.8300
    5.8400    5.8500    5.8600    5.8700    5.8800    5.8900    5.9000    5.9100
    5.9200    5.9300    5.9400    5.9500    5.9600    5.9700    5.9800    5.9900
    6.0000    6.0100
   </PP_R>
   <PP_RAB type="real"  size=" 602" columns="8">
    0.0100    0.0100    0.0100    0.0100    0.0100    0.0100    0.0100    0.0100
    0.0100    0.0100    0.0100    0.0100    0.0100    0.0100    0.0100    0.0100
    0.0100    0.0100    0.0100    0.0100    0.0100    0.0100    0.0100    0.0100
    0.0100    0.0100    0.0100    0.0100    0.0100    0.0100    0.0100    0.0100
    0.0100    0.0100    0.0100    0.0100    0.0100    0.0100    0.0100    0.0100
    0.0100    0.0100    0.0100    0.0100    0.0100    0.0100    0.0100    0.0100
    0.0100    0.0100    0.0100    0.0100    0.0100    0.0100    0.0100    0.0100
    0.0100    0.0100    0.0100    0.0100    0.0100    0.0100    0.0100    0.0100
    0.0100    0.0100    0.0100    0.0100    0.0100    0.0100    0.0100    0.0100
    0.0100    0.0100    0.0100    0.0100    0.0100    0.0100    0.0100    0.0100
    0.0100    0.0100    0.0100    0.0100    0.0100    0.0100    0.0100    0.0100
    0.0100    0.0100    0.0100    0.0100    0.0100    0.0100    0.0100    0.0100
    0.0100    0.0100    0.0100    0.0100    0.0100    0.0100    0.0100    0.0100
    0.0100    0.0100    0.0100    0.0100    0.0100    0.0100    0.0100    0.0100
    0.0100    0.0100    0.0100    0.0100    0.0100    0.0100    0.0100    0.0100
    0.0100    0.0100    0.0100    0.0100    0.0100    0.0100    0.0100    0.0100
    0.0100    0.0100    0.0100    0.0100    0.0100    0.0100    0.0100    0.0100
    0.0100    0.0100    0.0100    0.0100    0.0100    0.0100    0.0100    0.0100
    0.0100    0.0100    0.0100    0.0100    0.0100    0.0100    0.0100    0.0100
    0.0100    0.0100    0.0100    0.0100    0.0100    0.0100    0.0100    0.0100
    0.0100    0.0100    0.0100    0.0100    0.0100    0.0100    0.0100    0.0100
    0.0100    0.0100    0.0100    0.0100    0.0100    0.0100    0.0100    0.0100
    0.0100    0.0100    0.0100    0.0100    0.0100    0.0100    0.0100    0.0100
    0.0100    0.0100    0.0100    0.0100    0.0100    0.0100    0.0100    0.0100
    0.0100    0.0100    0.0100    0.0100    0.0100    0.0100    0.0100    0.0100
    0.0100    0.0100    0.0100    0.0100    0.0100    0.0100    0.0100    0.0100
    0.0100    0.0100    0.0100    0.0100    0.0100    0.0100    0.0100    0.0100
    0.0100    0.0100    0.0100    0.0100    0.0100    0.0100    0.0100    0.0100
    0.0100    0.0100    0.0100    0.0100    0.0100    0.0100    0.0100    0.0100
    0.0100    0.0100    0.0100    0.0100    0.0100    0.0100    0.0100    0.0100
    0.0100    0.0100    0.0100    0.0100    0.0100    0.0100    0.0100    0.0100
    0.0100    0.0100    0.0100    0.0100    0.0100    0.0100    0.0100    0.0100
    0.0100    0.0100    0.0100    0.0100    0.0100    0.0100    0.0100    0.0100
    0.0100    0.0100    0.0100    0.0100    0.0100    0.0100    0.0100    0.0100
    0.0100    0.0100    0.0100    0.0100    0.0100    0.0100    0.0100    0.0100
    0.0100    0.0100    0.0100    0.0100    0.0100    0.0100    0.0100    0.0100
    0.0100    0.0100    0.0100    0.0100    0.0100    0.0100    0.0100    0.0100
    0.0100    0.0100    0.0100    0.0100    0.0100    0.0100    0.0100    0.0100
    0.0100    0.0100    0.0100    0.0100    0.0100    0.0100    0.0100    0.0100
    0.0100    0.0100    0.0100    0.0100    0.0100    0.0100    0.0100    0.0100
    0.0100    0.0100    0.0100    0.0100    0.0100    0.0100    0.0100    0.0100
    0.0100    0.0100    0.0100    0.0100    0.0100    0.0100    0.0100    0.0100
    0.0100    0.0100    0.0100    0.0100    0.0100    0.0100    0.0100    0.0100
    0.0100    0.0100    0.0100    0.0100    0.0100    0.0100    0.0100    0.0100
    0.0100    0.0100    0.0100    0.0100    0.0100    0.0100    0.0100    0.0100
    0.0100    0.0100    0.0100    0.0100    0.0100    0.0100    0.0100    0.0100
    0.0100    0.0100    0.0100    0.0100    0.0100    0.0100    0.0100    0.0100
    0.0100    0.0100    0.0100    0.0100    0.0100    0.0100    0.0100    0.0100
    0.0100    0.0100    0.0100    0.0100    0.0100    0.0100    0.0100    0.0100
    0.0100    0.0100    0.0100    0.0100    0.0100    0.0100    0.0100    0.0100
    0.0100    0.0100    0.0100    0.0100    0.0100    0.0100    0.0100    0.0100
    0.0100    0.0100    0.0100    0.0100    0.0100    0.0100    0.0100    0.0100
    0.0100    0.0100    0.0100    0.0100    0.0100    0.0100    0.0100    0.0100
    0.0100    0.0100    0.0100    0.0100    0.0100    0.0100    0.0100    0.0100
    0.0100    0.0100    0.0100    0.0100    0.0100    0.0100    0.0100    0.0100
    0.0100    0.0100    0.0100    0.0100    0.0100    0.0100    0.0100    0.0100
    0.0100    0.0100    0.0100    0.0100    0.0100    0.0100    0.0100    0.0100
    0.0100    0.0100    0.0100    0.0100    0.0100    0.0100    0.0100    0.0100
    0.0100    0.0100    0.0100    0.0100    0.0100    0.0100    0.0100    0.0100
    0.0100    0.0100    0.0100    0.0100    0.0100    0.0100    0.0100    0.0100
    0.0100    0.0100    0.0100    0.0100    0.0100    0.0100    0.0100    0.0100
    0.0100    0.0100    0.0100    0.0100    0.0100    0.0100    0.0100    0.0100
    0.0100    0.0100    0.0100    0.0100    0.0100    0.0100    0.0100    0.0100
    0.0100    0.0100    0.0100    0.0100    0.0100    0.0100    0.0100    0.0100
    0.0100    0.0100    0.0100    0.0100    0.0100    0.0100    0.0100    0.0100
    0.0100    0.0100    0.0100    0.0100    0.0100    0.0100    0.0100    0.0100
    0.0100    0.0100    0.0100    0.0100    0.0100    0.0100    0.0100    0.0100
    0.0100    0.0100    0.0100    0.0100    0.0100    0.0100    0.0100    0.0100
    0.0100    0.0100    0.0100    0.0100    0.0100    0.0100    0.0100    0.0100
    0.0100    0.0100    0.0100    0.0100    0.0100    0.0100    0.0100    0.0100
    0.0100    0.0100    0.0100    0.0100    0.0100    0.0100    0.0100    0.0100
    0.0100    0.0100    0.0100    0.0100    0.0100    0.0100    0.0100    0.0100
    0.0100    0.0100    0.0100    0.0100    0.0100    0.0100    0.0100    0.0100
    0.0100    0.0100    0.0100    0.0100    0.0100    0.0100    0.0100    0.0100
    0.0100    0.0100    0.0100    0.0100    0.0100    0.0100    0.0100    0.0100
    0.0100    0.0100
   </PP_RAB>
 </PP_MESH>
  <PP_LOCAL type="real"  size=" 602" columns="4">
   -1.4764894741E+01   -1.4762539532E+01   -1.4755449167E+01   -1.4743648750E+01
   -1.4727163381E+01   -1.4706027859E+01   -1.4680286342E+01   -1.4649991937E+01
   -1.4615206216E+01   -1.4575998687E+01   -1.4532446215E+01   -1.4484632422E+01
   -1.4432647073E+01   -1.4376585458E+01   -1.4316547795E+01   -1.4252638643E+01
   -1.4184966350E+01   -1.4113642541E+01   -1.4038781642E+01   -1.3960500446E+01
   -1.3878917734E+01   -1.3794153927E+01   -1.3706330797E+01   -1.3615571202E+01
   -1.3521998877E+01   -1.3425738241E+01   -1.3326914246E+01   -1.3225652250E+01
   -1.3122077901E+01   -1.3016317055E+01   -1.2908495687E+01   -1.2798739830E+01
   -1.2687175506E+01   -1.2573928666E+01   -1.2459125130E+01   -1.2342890521E+01
   -1.2225350201E+01   -1.2106629196E+01   -1.1986852115E+01   -1.1866143062E+01
   -1.1744625534E+01   -1.1622422318E+01   -1.1499655363E+01   -1.1376445652E+01
   -1.1252913055E+01   -1.1129176172E+01   -1.1005352156E+01   -1.0881556528E+01
   -1.0757902982E+01   -1.0634503143E+01   -1.0511466347E+01   -1.0388899397E+01
   -1.0266906283E+01   -1.0145587865E+01   -1.0025041661E+01   -9.9053613968E+00
   -9.7866368106E+00   -9.6689532030E+00   -9.5523911894E+00   -9.4370262316E+00
   -9.3229284979E+00   -9.2101622377E+00   -9.0987858306E+00   -8.9888512337E+00
   -8.8804038404E+00   -8.7734824764E+00   -8.6681190355E+00   -8.5643385515E+00
   -8.4621593395E+00   -8.3615931835E+00   -8.2626453003E+00   -8.1653149407E+00
   -8.0695957776E+00   -7.9754764076E+00   -7.8829409599E+00   -7.7919696970E+00
   -7.7025396999E+00   -7.6146256202E+00   -7.5282003321E+00   -7.4432355746E+00
   -7.3597025333E+00   -7.2775723348E+00   -7.1968164352E+00   -7.1174068854E+00
   -7.0393164610E+00   -6.9625186499E+00   -6.8869874953E+00   -6.8126972968E+00
   -6.7396221776E+00   -6.6677354986E+00   -6.5970091218E+00   -6.5274151254E+00
   -6.4589294106E+00   -6.3915333262E+00   -6.3252128172E+00   -6.2599576024E+00
   -6.1957603525E+00   -6.1326161568E+00   -6.0705215878E+00   -6.0094741617E+00
   -5.9494717776E+00   -5.8905122302E+00   -5.8325928145E+00   -5.7757100172E+00
   -5.7198590687E+00   -5.6650339057E+00   -5.6112270084E+00   -5.5584293517E+00
   -5.5066304495E+00   -5.4558180213E+00   -5.4059784557E+00   -5.3570967939E+00
   -5.3091569411E+00   -5.2621414740E+00   -5.2160321036E+00   -5.1708098001E+00
   -5.1264549503E+00   -5.0829473188E+00   -5.0402664586E+00   -4.9983917466E+00
   -4.9573024633E+00   -4.9169780016E+00   -4.8773979116E+00   -4.8385418947E+00
   -4.8003901001E+00   -4.7629229646E+00   -4.7261211682E+00   -4.6899660023E+00
   -4.6544390276E+00   -4.6195220554E+00   -4.5851974668E+00   -4.5514477922E+00
   -4.5182558055E+00   -4.4856046098E+00   -4.4534773630E+00   -4.4218573946E+00
   -4.3907281023E+00   -4.3600729077E+00   -4.3298752546E+00   -4.3001185680E+00
   -4.2707862586E+00   -4.2418617338E+00   -4.2133284048E+00   -4.1851697524E+00
   -4.1573694385E+00   -4.1299111600E+00   -4.1027793333E+00   -4.0759581858E+00
   -4.0494334087E+00   -4.0231908029E+00   -3.9972175819E+00   -3.9715023819E+00
   -3.9460344924E+00   -3.9208066836E+00   -3.8958109799E+00   -3.8710451737E+00
   -3.8465052785E+00   -3.8221938000E+00   -3.7981118920E+00   -3.7742658045E+00
   -3.7506612931E+00   -3.7273071778E+00   -3.7042115667E+00   -3.6813837089E+00
   -3.6588305994E+00   -3.6365589169E+00   -3.6145710099E+00   -3.5928678431E+00
   -3.5714453031E+00   -3.5502968933E+00   -3.5294134518E+00   -3.5087827985E+00
   -3.4883951946E+00   -3.4682397472E+00   -3.4483103539E+00   -3.4286051671E+00
   -3.4091213744E+00   -3.3898581729E+00   -3.3708131612E+00   -3.3519803539E+00
   -3.3333550063E+00   -3.3149350336E+00   -3.2967176376E+00   -3.2786993931E+00
   -3.2608769319E+00   -3.2432473047E+00   -3.2258074328E+00   -3.2085543756E+00
   -3.1914851723E+00   -3.1745969313E+00   -3.1578868348E+00   -3.1413520321E+00
   -3.1249898488E+00   -3.1087974722E+00   -3.0927723525E+00   -3.0769118058E+00
   -3.0612133195E+00   -3.0456743901E+00   -3.0302925231E+00   -3.0150654059E+00
   -2.9999905670E+00   -2.9850658277E+00   -2.9702888691E+00   -2.9556575104E+00
   -2.9411696287E+00   -2.9268230327E+00   -2.9126157559E+00   -2.8985456889E+00
   -2.8846108983E+00   -2.8708094441E+00   -2.8571393626E+00   -2.8435988684E+00
   -2.8301860477E+00   -2.8168991529E+00   -2.8037364259E+00   -2.7906960741E+00
   -2.7777764806E+00   -2.7649759124E+00   -2.7522927600E+00   -2.7397254480E+00
   -2.7272723106E+00   -2.7149318899E+00   -2.7027026246E+00   -2.6905830037E+00
   -2.6785716161E+00   -2.6666669488E+00   -2.6548676326E+00   -2.6431722927E+00
   -2.6315794842E+00   -2.6200879473E+00   -2.6086963313E+00   -2.5974033107E+00
   -2.5862076702E+00   -2.5751081044E+00   -2.5641033962E+00   -2.5531923717E+00
   -2.5423737725E+00   -2.5316464779E+00   -2.5210093544E+00   -2.5104611917E+00
   -2.5000009534E+00   -2.4896275380E+00   -2.4793398090E+00   -2.4691367781E+00
   -2.4590173860E+00   -2.4489805659E+00   -2.4390253717E+00   -2.4291507877E+00
   -2.4193558087E+00   -2.4096395295E+00   -2.4000009790E+00   -2.3904392045E+00
   -2.3809533418E+00   -2.3715424643E+00   -2.3622056638E+00   -2.3529421172E+00
   -2.3437509424E+00   -2.3346312681E+00   -2.3255823123E+00   -2.3166032375E+00
   -2.3076932024E+00   -2.2988514657E+00   -2.2900772350E+00   -2.2813696923E+00
   -2.2727281369E+00   -2.2641518213E+00   -2.2556399455E+00   -2.2471918487E+00
   -2.2388068181E+00   -2.2304840973E+00   -2.2222230340E+00   -2.2140229585E+00
   -2.2058831591E+00   -2.1978029855E+00   -2.1897818114E+00   -2.1818189705E+00
   -2.1739138094E+00   -2.1660657444E+00   -2.1582741550E+00   -2.1505383815E+00
   -2.1428578806E+00   -2.1352320635E+00   -2.1276603059E+00   -2.1201420589E+00
   -2.1126767754E+00   -2.1052638772E+00   -2.0979027961E+00   -2.0905930287E+00
   -2.0833340398E+00   -2.0761252517E+00   -2.0689661903E+00   -2.0618563489E+00
   -2.0547951950E+00   -2.0477822263E+00   -2.0408169808E+00   -2.0338989721E+00
   -2.0270276714E+00   -2.0202026544E+00   -2.0134234586E+00   -2.0066896006E+00
   -2.0000006195E+00   -1.9933560982E+00   -1.9867555945E+00   -1.9801986303E+00
   -1.9736848092E+00   -1.9672137164E+00   -1.9607849206E+00   -1.9543979813E+00
   -1.9480525288E+00   -1.9417481611E+00   -1.9354844530E+00   -1.9292610168E+00
   -1.9230774878E+00   -1.9169334828E+00   -1.9108285853E+00   -1.9047624529E+00
   -1.8987347270E+00   -1.8927450389E+00   -1.8867929923E+00   -1.8808782739E+00
   -1.8750005352E+00   -1.8691594169E+00   -1.8633545580E+00   -1.8575856539E+00
   -1.8518523724E+00   -1.8461543650E+00   -1.8404913005E+00   -1.8348628839E+00
   -1.8292687983E+00   -1.8237087073E+00   -1.8181823042E+00   -1.8126893044E+00
   -1.8072294058E+00   -1.8018022853E+00   -1.7964076553E+00   -1.7910452428E+00
   -1.7857147599E+00   -1.7804158976E+00   -1.7751483827E+00   -1.7699119550E+00
   -1.7647063401E+00   -1.7595312438E+00   -1.7543864032E+00   -1.7492715716E+00
   -1.7441864873E+00   -1.7391308724E+00   -1.7341044696E+00   -1.7291070468E+00
   -1.7241383546E+00   -1.7191981320E+00   -1.7142861234E+00   -1.7094021123E+00
   -1.7045458608E+00   -1.6997171258E+00   -1.6949156500E+00   -1.6901412328E+00
   -1.6853936475E+00   -1.6806726673E+00   -1.6759780370E+00   -1.6713095656E+00
   -1.6666670390E+00   -1.6620502410E+00   -1.6574589359E+00   -1.6528929222E+00
   -1.6483520048E+00   -1.6438359775E+00   -1.6393446251E+00   -1.6348777327E+00
   -1.6304351244E+00   -1.6260166036E+00   -1.6216219739E+00   -1.6172510124E+00
   -1.6129035546E+00   -1.6085794156E+00   -1.6042784079E+00   -1.6000003305E+00
   -1.5957449988E+00   -1.5915122490E+00   -1.5873019024E+00   -1.5831137805E+00
   -1.5789476779E+00   -1.5748034501E+00   -1.5706809274E+00   -1.5665799392E+00
   -1.5625003035E+00   -1.5584418497E+00   -1.5544044308E+00   -1.5503878843E+00
   -1.5463920480E+00   -1.5424167375E+00   -1.5384618140E+00   -1.5345271270E+00
   -1.5306125219E+00   -1.5267178391E+00   -1.5228429085E+00   -1.5189876035E+00
   -1.5151517766E+00   -1.5113352800E+00   -1.5075379544E+00   -1.5037596533E+00
   -1.5000002496E+00   -1.4962596027E+00   -1.4925375717E+00   -1.4888339989E+00
   -1.4851487572E+00   -1.4814817202E+00   -1.4778327538E+00   -1.4742017237E+00
   -1.4705884751E+00   -1.4669928965E+00   -1.4634148631E+00   -1.4598542471E+00
   -1.4563109205E+00   -1.4527847329E+00   -1.4492755840E+00   -1.4457833525E+00
   -1.4423079162E+00   -1.4388491527E+00   -1.4354069188E+00   -1.4319811201E+00
   -1.4285716403E+00   -1.4251783631E+00   -1.4218011716E+00   -1.4184399288E+00
   -1.4150945452E+00   -1.4117649100E+00   -1.4084509123E+00   -1.4051524412E+00
   -1.4018693650E+00   -1.3986015977E+00   -1.3953490345E+00   -1.3921115697E+00
   -1.3888890974E+00   -1.3856814943E+00   -1.3824886729E+00   -1.3793105360E+00
   -1.3761469829E+00   -1.3729979127E+00   -1.3698632109E+00   -1.3667427861E+00
   -1.3636365496E+00   -1.3605444053E+00   -1.3574662571E+00   -1.3544020005E+00
   -1.3513515374E+00   -1.3483147884E+00   -1.3452916618E+00   -1.3422820661E+00
   -1.3392859077E+00   -1.3363030794E+00   -1.3333335118E+00   -1.3303771174E+00
   -1.3274338089E+00   -1.3245034991E+00   -1.3215860865E+00   -1.3186814951E+00
   -1.3157896473E+00   -1.3129104596E+00   -1.3100438489E+00   -1.3071897266E+00
   -1.3043480019E+00   -1.3015186093E+00   -1.2987014694E+00   -1.2958965028E+00
   -1.2931036300E+00   -1.2903227573E+00   -1.2875538183E+00   -1.2847967415E+00
   -1.2820514512E+00   -1.2793178717E+00   -1.2765959236E+00   -1.2738855213E+00
   -1.2711866068E+00   -1.2684991081E+00   -1.2658229531E+00   -1.2631580695E+00
   -1.2605043750E+00   -1.2578618017E+00   -1.2552302886E+00   -1.2526097668E+00
   -1.2500001676E+00   -1.2474014221E+00   -1.2448134468E+00   -1.2422361878E+00
   -1.2396695821E+00   -1.2371135640E+00   -1.2345680680E+00   -1.2320330270E+00
   -1.2295083618E+00   -1.2269940251E+00   -1.2244899544E+00   -1.2219960871E+00
   -1.2195123608E+00   -1.2170387087E+00   -1.2145750607E+00   -1.2121213696E+00
   -1.2096775757E+00   -1.2072436194E+00   -1.2048194411E+00   -1.2024049758E+00
   -1.2000001593E+00   -1.1976049455E+00   -1.1952192776E+00   -1.1928430989E+00
   -1.1904763523E+00   -1.1881189755E+00   -1.1857709079E+00   -1.1834321054E+00
   -1.1811025140E+00   -1.1787820793E+00   -1.1764707472E+00   -1.1741684590E+00
   -1.1718751548E+00   -1.1695907938E+00   -1.1673153243E+00   -1.1650486947E+00
   -1.1627908533E+00   -1.1605417459E+00   -1.1583013112E+00   -1.1560695124E+00
   -1.1538463003E+00   -1.1516316256E+00   -1.1494254390E+00   -1.1472276913E+00
   -1.1450383192E+00   -1.1428572890E+00   -1.1406845543E+00   -1.1385200682E+00
   -1.1363637837E+00   -1.1342156538E+00   -1.1320756216E+00   -1.1299436471E+00
   -1.1278196898E+00   -1.1257037052E+00   -1.1235956483E+00   -1.1214954744E+00
   -1.1194031341E+00   -1.1173185784E+00   -1.1152417742E+00   -1.1131726786E+00
   -1.1111112491E+00   -1.1090574429E+00   -1.1070112173E+00   -1.1049725173E+00
   -1.1029413129E+00   -1.1009175649E+00   -1.0989012324E+00   -1.0968922747E+00
   -1.0948906513E+00   -1.0928963159E+00   -1.0909092259E+00   -1.0889293506E+00
   -1.0869566511E+00   -1.0849910887E+00   -1.0830326245E+00   -1.0810812197E+00
   -1.0791368249E+00   -1.0771994109E+00   -1.0752689432E+00   -1.0733453847E+00
   -1.0714286984E+00   -1.0695188474E+00   -1.0676157927E+00   -1.0657194887E+00
   -1.0638299108E+00   -1.0619470239E+00   -1.0600707926E+00   -1.0582011817E+00
   -1.0563381559E+00   -1.0544816747E+00   -1.0526317013E+00   -1.0507882095E+00
   -1.0489511656E+00   -1.0471205359E+00   -1.0452962869E+00   -1.0434783850E+00
   -1.0416667891E+00   -1.0398614689E+00   -1.0380623972E+00   -1.0362695421E+00
   -1.0344828714E+00   -1.0327023530E+00   -1.0309279550E+00   -1.0291596370E+00
   -1.0273973724E+00   -1.0256411344E+00   -1.0238908924E+00   -1.0221466158E+00
   -1.0204082742E+00   -1.0186758368E+00   -1.0169492650E+00   -1.0152285339E+00
   -1.0135136176E+00   -1.0118044873E+00   -1.0101011135E+00   -1.0084034673E+00
   -1.0067115195E+00   -1.0050252338E+00   -1.0033445848E+00   -1.0016695488E+00
   -1.0000000982E+00   -9.9833620506E-01
  </PP_LOCAL>
 <PP_NONLOCAL>
   <PP_BETA.1
       type="real"
       size=" 602"
       columns="4"
       index="1"
       angular_momentum="0"
       cutoff_radius_index=" 178"
       cutoff_radius="    1.7700000000E+00" >
    0.0000000000E+00   -7.7568112882E-02   -1.5498724243E-01   -2.3210801498E-01
   -3.0878028656E-01   -3.8485278363E-01   -4.6017277454E-01   -5.3458578125E-01
   -6.0793534073E-01   -6.8006282433E-01   -7.5080732330E-01   -8.2000560723E-01
   -8.8749216190E-01   -9.5309931153E-01   -1.0166574296E+00   -1.0779952417E+00
   -1.1369402214E+00   -1.1933190810E+00   -1.2469583555E+00   -1.2976850792E+00
   -1.3453275503E+00   -1.3897161816E+00   -1.4306844291E+00   -1.4680697943E+00
   -1.5017148892E+00   -1.5314685631E+00   -1.5571870658E+00   -1.5787352597E+00
   -1.5959878429E+00   -1.6088305931E+00   -1.6171616083E+00   -1.6208925336E+00
   -1.6199497555E+00   -1.6142755706E+00   -1.6038292855E+00   -1.5885882404E+00
   -1.5685487861E+00   -1.5437271298E+00   -1.5141600735E+00   -1.4799056830E+00
   -1.4410437678E+00   -1.3976762490E+00   -1.3499273790E+00   -1.2979438022E+00
   -1.2418944537E+00   -1.1819702893E+00   -1.1183838452E+00   -1.0513686241E+00
   -9.8117831107E-01   -9.0808582055E-01   -8.3238215206E-01   -7.5437511927E-01
   -6.7438790116E-01   -5.9275737897E-01   -5.0983254731E-01   -4.2597241649E-01
   -3.4154426602E-01   -2.5692133340E-01   -1.7248084841E-01   -8.8601477491E-02
   -5.6615295689E-03    7.5964195063E-02    1.5590581492E-01    2.3380152175E-01
    3.0929971107E-01    3.8206078265E-01    4.5176018615E-01    5.1809032247E-01
    5.8076235513E-01    6.3950798647E-01    6.9408236066E-01    7.4426483647E-01
    7.8986067016E-01    8.3070243078E-01    8.6665103886E-01    8.9759699447E-01
    9.2346125537E-01    9.4419535446E-01    9.5978191640E-01    9.7023476650E-01
    9.7559881571E-01    9.7594972330E-01    9.7139334052E-01    9.6206494093E-01
    9.4812824500E-01    9.2977424836E-01    9.0721986521E-01    8.8070640001E-01
    8.5049786225E-01    8.1687915003E-01    7.8015412708E-01    7.4064280867E-01
    6.9867772713E-01    6.5460065898E-01    6.0876000817E-01    5.6150816818E-01
    5.1319950671E-01    4.6418605311E-01    4.1481632000E-01    3.6543238709E-01
    3.1636746756E-01    2.6794359011E-01    2.2046978697E-01    1.7424035248E-01