<UPF version="2.0.1">
  <PP_INFO>

 This pseudopotential file has been produced using the code
 ONCVPSP  (Optimized Norm-Conservinng Vanderbilt PSeudopotential)
 scalar-relativistic version 2.1.1, 03/26/2014 by D. R. Hamann
 The code is available through a link at URL www.mat-simresearch.com.
 Documentation with the package provides a full discription of the
 input data below.


 While it is not required under the terms of the GNU GPL, it is
 suggested that you cite D. R. Hamann, Phys. Rev. B 88, 085117 (2013)
 in any publication using these pseudopotentials.


 Copyright 2015 The Regents of the University of California
 
 This work is licensed under the Creative Commons Attribution-ShareAlike 
 4.0 International License. To view a copy of this license, visit 
 http://creativecommons.org/licenses/by-sa/4.0/ or send a letter to 
 Creative Commons, PO Box 1866, Mountain View, CA 94042, USA.
 
 This pseudopotential is part of the Schlipf-Gygi norm-conserving 
 pseudopotential library. Its construction parameters were tuned to 
 reproduce materials of a training set with very high accuracy and 
 should be suitable as a general purpose pseudopotential to treat a 
 variety of different compounds. For details of the construction and 
 testing of the pseudopotential please refer to:
 
 [insert reference to paper here]
 
 We kindly ask that you include this reference in all publications 
 associated to this pseudopotential.


    <PP_INPUTFILE>
# ATOM AND REFERENCE CONFIGURATION
# atsym  z    nc    nv    iexc   psfile
  Mn 25.00     3     4     4      upf
#
#   n    l    f        energy (Ha)
    1    0    2.00
    2    0    2.00
    2    1    6.00
    3    0    2.00
    3    1    6.00
    4    0    2.00
    3    2    5.00
#
# PSEUDOPOTENTIAL AND OPTIMIZATION
# lmax
    2
#
#   l,   rc,     ep,   ncon, nbas, qcut
    0   2.47442  -3.15601    5    8   6.16880
    1   2.47442  -2.00626    5    8   7.85878
    2   2.11898  -0.24883    5    8   7.59051
#
# LOCAL POTENTIAL
# lloc, lpopt,  rc(5),   dvloc0
    4    5   1.92612      0.00000
#
# VANDERBILT-KLEINMAN-BYLANDER PROJECTORs
# l, nproj, debl
    0    2   2.96832
    1    2   1.95591
    2    2   1.09448
#
# MODEL CORE CHARGE
# icmod, fcfact
    0   0.00000
#
# LOG DERIVATIVE ANALYSIS
# epsh1, epsh2, depsh
   -5.00    3.00    0.02
#
# OUTPUT GRID
# rlmax, drl
    6.00    0.01
#
# TEST CONFIGURATIONS
# ncnf
    0
# nvcnf
#   n    l    f
    </PP_INPUTFILE>
  </PP_INFO>
  <!--                               -->
  <!-- END OF HUMAN READABLE SECTION -->
  <!--                               -->
    <PP_HEADER
       generated="Generated using ONCVPSP code by D. R. Hamann"
       author="Martin Schlipf and Francois Gygi"
       date="150105"
       comment=""
       element="Mn"
       pseudo_type="NC"
       relativistic="scalar"
       is_ultrasoft="F"
       is_paw="F"
       is_coulomb="F"
       has_so="F"
       has_wfc="F"
       has_gipaw="F"
       core_correction="F"
       functional="PBE"
       z_valence="   15.00"
       total_psenergy="  -9.91930864040E+01"
       rho_cutoff="   6.01000000000E+00"
       l_max="2"
       l_local="-1"
       mesh_size="   602"
       number_of_wfc="0"
       number_of_proj="6"/>
 <PP_MESH>
   <PP_R type="real"  size=" 602" columns="8">
    0.0000    0.0100    0.0200    0.0300    0.0400    0.0500    0.0600    0.0700
    0.0800    0.0900    0.1000    0.1100    0.1200    0.1300    0.1400    0.1500
    0.1600    0.1700    0.1800    0.1900    0.2000    0.2100    0.2200    0.2300
    0.2400    0.2500    0.2600    0.2700    0.2800    0.2900    0.3000    0.3100
    0.3200    0.3300    0.3400    0.3500    0.3600    0.3700    0.3800    0.3900
    0.4000    0.4100    0.4200    0.4300    0.4400    0.4500    0.4600    0.4700
    0.4800    0.4900    0.5000    0.5100    0.5200    0.5300    0.5400    0.5500
    0.5600    0.5700    0.5800    0.5900    0.6000    0.6100    0.6200    0.6300
    0.6400    0.6500    0.6600    0.6700    0.6800    0.6900    0.7000    0.7100
    0.7200    0.7300    0.7400    0.7500    0.7600    0.7700    0.7800    0.7900
    0.8000    0.8100    0.8200    0.8300    0.8400    0.8500    0.8600    0.8700
    0.8800    0.8900    0.9000    0.9100    0.9200    0.9300    0.9400    0.9500
    0.9600    0.9700    0.9800    0.9900    1.0000    1.0100    1.0200    1.0300
    1.0400    1.0500    1.0600    1.0700    1.0800    1.0900    1.1000    1.1100
    1.1200    1.1300    1.1400    1.1500    1.1600    1.1700    1.1800    1.1900
    1.2000    1.2100    1.2200    1.2300    1.2400    1.2500    1.2600    1.2700
    1.2800    1.2900    1.3000    1.3100    1.3200    1.3300    1.3400    1.3500
    1.3600    1.3700    1.3800    1.3900    1.4000    1.4100    1.4200    1.4300
    1.4400    1.4500    1.4600    1.4700    1.4800    1.4900    1.5000    1.5100
    1.5200    1.5300    1.5400    1.5500    1.5600    1.5700    1.5800    1.5900
    1.6000    1.6100    1.6200    1.6300    1.6400    1.6500    1.6600    1.6700
    1.6800    1.6900    1.7000    1.7100    1.7200    1.7300    1.7400    1.7500
    1.7600    1.7700    1.7800    1.7900    1.8000    1.8100    1.8200    1.8300
    1.8400    1.8500    1.8600    1.8700    1.8800    1.8900    1.9000    1.9100
    1.9200    1.9300    1.9400    1.9500    1.9600    1.9700    1.9800    1.9900
    2.0000    2.0100    2.0200    2.0300    2.0400    2.0500    2.0600    2.0700
    2.0800    2.0900    2.1000    2.1100    2.1200    2.1300    2.1400    2.1500
    2.1600    2.1700    2.1800    2.1900    2.2000    2.2100    2.2200    2.2300
    2.2400    2.2500    2.2600    2.2700    2.2800    2.2900    2.3000    2.3100
    2.3200    2.3300    2.3400    2.3500    2.3600    2.3700    2.3800    2.3900
    2.4000    2.4100    2.4200    2.4300    2.4400    2.4500    2.4600    2.4700
    2.4800    2.4900    2.5000    2.5100    2.5200    2.5300    2.5400    2.5500
    2.5600    2.5700    2.5800    2.5900    2.6000    2.6100    2.6200    2.6300
    2.6400    2.6500    2.6600    2.6700    2.6800    2.6900    2.7000    2.7100
    2.7200    2.7300    2.7400    2.7500    2.7600    2.7700    2.7800    2.7900
    2.8000    2.8100    2.8200    2.8300    2.8400    2.8500    2.8600    2.8700
    2.8800    2.8900    2.9000    2.9100    2.9200    2.9300    2.9400    2.9500
    2.9600    2.9700    2.9800    2.9900    3.0000    3.0100    3.0200    3.0300
    3.0400    3.0500    3.0600    3.0700    3.0800    3.0900    3.1000    3.1100
    3.1200    3.1300    3.1400    3.1500    3.1600    3.1700    3.1800    3.1900
    3.2000    3.2100    3.2200    3.2300    3.2400    3.2500    3.2600    3.2700
    3.2800    3.2900    3.3000    3.3100    3.3200    3.3300    3.3400    3.3500
    3.3600    3.3700    3.3800    3.3900    3.4000    3.4100    3.4200    3.4300
    3.4400    3.4500    3.4600    3.4700    3.4800    3.4900    3.5000    3.5100
    3.5200    3.5300    3.5400    3.5500    3.5600    3.5700    3.5800    3.5900
    3.6000    3.6100    3.6200    3.6300    3.6400    3.6500    3.6600    3.6700
    3.6800    3.6900    3.7000    3.7100    3.7200    3.7300    3.7400    3.7500
    3.7600    3.7700    3.7800    3.7900    3.8000    3.8100    3.8200    3.8300
    3.8400    3.8500    3.8600    3.8700    3.8800    3.8900    3.9000    3.9100
    3.9200    3.9300    3.9400    3.9500    3.9600    3.9700    3.9800    3.9900
    4.0000    4.0100    4.0200    4.0300    4.0400    4.0500    4.0600    4.0700
    4.0800    4.0900    4.1000    4.1100    4.1200    4.1300    4.1400    4.1500
    4.1600    4.1700    4.1800    4.1900    4.2000    4.2100    4.2200    4.2300
    4.2400    4.2500    4.2600    4.2700    4.2800    4.2900    4.3000    4.3100
    4.3200    4.3300    4.3400    4.3500    4.3600    4.3700    4.3800    4.3900
    4.4000    4.4100    4.4200    4.4300    4.4400    4.4500    4.4600    4.4700
    4.4800    4.4900    4.5000    4.5100    4.5200    4.5300    4.5400    4.5500
    4.5600    4.5700    4.5800    4.5900    4.6000    4.6100    4.6200    4.6300
    4.6400    4.6500    4.6600    4.6700    4.6800    4.6900    4.7000    4.7100
    4.7200    4.7300    4.7400    4.7500    4.7600    4.7700    4.7800    4.7900
    4.8000    4.8100    4.8200    4.8300    4.8400    4.8500    4.8600    4.8700
    4.8800    4.8900    4.9000    4.9100    4.9200    4.9300    4.9400    4.9500
    4.9600    4.9700    4.9800    4.9900    5.0000    5.0100    5.0200    5.0300
    5.0400    5.0500    5.0600    5.0700    5.0800    5.0900    5.1000    5.1100
    5.1200    5.1300    5.1400    5.1500    5.1600    5.1700    5.1800    5.1900
    5.2000    5.2100    5.2200    5.2300    5.2400    5.2500    5.2600    5.2700
    5.2800    5.2900    5.3000    5.3100    5.3200    5.3300    5.3400    5.3500
    5.3600    5.3700    5.3800    5.3900    5.4000    5.4100    5.4200    5.4300
    5.4400    5.4500    5.4600    5.4700    5.4800    5.4900    5.5000    5.5100
    5.5200    5.5300    5.5400    5.5500    5.5600    5.5700    5.5800    5.5900
    5.6000    5.6100    5.6200    5.6300    5.6400    5.6500    5.6600    5.6700
    5.6800    5.6900    5.7000    5.7100    5.7200    5.7300    5.7400    5.7500
    5.7600    5.7700    5.7800    5.7900    5.8000    5.8100    5.8200    5.8300
    5.8400    5.8500    5.8600    5.8700    5.8800    5.8900    5.9000    5.9100
    5.9200    5.9300    5.9400    5.9500    5.9600    5.9700    5.9800    5.9900
    6.0000    6.0100
   </PP_R>
   <PP_RAB type="real"  size=" 602" columns="8">
    0.0100    0.0100    0.0100    0.0100    0.0100    0.0100    0.0100    0.0100
    0.0100    0.0100    0.0100    0.0100    0.0100    0.0100    0.0100    0.0100
    0.0100    0.0100    0.0100    0.0100    0.0100    0.0100    0.0100    0.0100
    0.0100    0.0100    0.0100    0.0100    0.0100    0.0100    0.0100    0.0100
    0.0100    0.0100    0.0100    0.0100    0.0100    0.0100    0.0100    0.0100
    0.0100    0.0100    0.0100    0.0100    0.0100    0.0100    0.0100    0.0100
    0.0100    0.0100    0.0100    0.0100    0.0100    0.0100    0.0100    0.0100
    0.0100    0.0100    0.0100    0.0100    0.0100    0.0100    0.0100    0.0100
    0.0100    0.0100    0.0100    0.0100    0.0100    0.0100    0.0100    0.0100
    0.0100    0.0100    0.0100    0.0100    0.0100    0.0100    0.0100    0.0100
    0.0100    0.0100    0.0100    0.0100    0.0100    0.0100    0.0100    0.0100
    0.0100    0.0100    0.0100    0.0100    0.0100    0.0100    0.0100    0.0100
    0.0100    0.0100    0.0100    0.0100    0.0100    0.0100    0.0100    0.0100
    0.0100    0.0100    0.0100    0.0100    0.0100    0.0100    0.0100    0.0100
    0.0100    0.0100    0.0100    0.0100    0.0100    0.0100    0.0100    0.0100
    0.0100    0.0100    0.0100    0.0100    0.0100    0.0100    0.0100    0.0100
    0.0100    0.0100    0.0100    0.0100    0.0100    0.0100    0.0100    0.0100
    0.0100    0.0100    0.0100    0.0100    0.0100    0.0100    0.0100    0.0100
    0.0100    0.0100    0.0100    0.0100    0.0100    0.0100    0.0100    0.0100
    0.0100    0.0100    0.0100    0.0100    0.0100    0.0100    0.0100    0.0100
    0.0100    0.0100    0.0100    0.0100    0.0100    0.0100    0.0100    0.0100
    0.0100    0.0100    0.0100    0.0100    0.0100    0.0100    0.0100    0.0100
    0.0100    0.0100    0.0100    0.0100    0.0100    0.0100    0.0100    0.0100
    0.0100    0.0100    0.0100    0.0100    0.0100    0.0100    0.0100    0.0100
    0.0100    0.0100    0.0100    0.0100    0.0100    0.0100    0.0100    0.0100
    0.0100    0.0100    0.0100    0.0100    0.0100    0.0100    0.0100    0.0100
    0.0100    0.0100    0.0100    0.0100    0.0100    0.0100    0.0100    0.0100
    0.0100    0.0100    0.0100    0.0100    0.0100    0.0100    0.0100    0.0100
    0.0100    0.0100    0.0100    0.0100    0.0100    0.0100    0.0100    0.0100
    0.0100    0.0100    0.0100    0.0100    0.0100    0.0100    0.0100    0.0100
    0.0100    0.0100    0.0100    0.0100    0.0100    0.0100    0.0100    0.0100
    0.0100    0.0100    0.0100    0.0100    0.0100    0.0100    0.0100    0.0100
    0.0100    0.0100    0.0100    0.0100    0.0100    0.0100    0.0100    0.0100
    0.0100    0.0100    0.0100    0.0100    0.0100    0.0100    0.0100    0.0100
    0.0100    0.0100    0.0100    0.0100    0.0100    0.0100    0.0100    0.0100
    0.0100    0.0100    0.0100    0.0100    0.0100    0.0100    0.0100    0.0100
    0.0100    0.0100    0.0100    0.0100    0.0100    0.0100    0.0100    0.0100
    0.0100    0.0100    0.0100    0.0100    0.0100    0.0100    0.0100    0.0100
    0.0100    0.0100    0.0100    0.0100    0.0100    0.0100    0.0100    0.0100
    0.0100    0.0100    0.0100    0.0100    0.0100    0.0100    0.0100    0.0100
    0.0100    0.0100    0.0100    0.0100    0.0100    0.0100    0.0100    0.0100
    0.0100    0.0100    0.0100    0.0100    0.0100    0.0100    0.0100    0.0100
    0.0100    0.0100    0.0100    0.0100    0.0100    0.0100    0.0100    0.0100
    0.0100    0.0100    0.0100    0.0100    0.0100    0.0100    0.0100    0.0100
    0.0100    0.0100    0.0100    0.0100    0.0100    0.0100    0.0100    0.0100
    0.0100    0.0100    0.0100    0.0100    0.0100    0.0100    0.0100    0.0100
    0.0100    0.0100    0.0100    0.0100    0.0100    0.0100    0.0100    0.0100
    0.0100    0.0100    0.0100    0.0100    0.0100    0.0100    0.0100    0.0100
    0.0100    0.0100    0.0100    0.0100    0.0100    0.0100    0.0100    0.0100
    0.0100    0.0100    0.0100    0.0100    0.0100    0.0100    0.0100    0.0100
    0.0100    0.0100    0.0100    0.0100    0.0100    0.0100    0.0100    0.0100
    0.0100    0.0100    0.0100    0.0100    0.0100    0.0100    0.0100    0.0100
    0.0100    0.0100    0.0100    0.0100    0.0100    0.0100    0.0100    0.0100
    0.0100    0.0100    0.0100    0.0100    0.0100    0.0100    0.0100    0.0100
    0.0100    0.0100    0.0100    0.0100    0.0100    0.0100    0.0100    0.0100
    0.0100    0.0100    0.0100    0.0100    0.0100    0.0100    0.0100    0.0100
    0.0100    0.0100    0.0100    0.0100    0.0100    0.0100    0.0100    0.0100
    0.0100    0.0100    0.0100    0.0100    0.0100    0.0100    0.0100    0.0100
    0.0100    0.0100    0.0100    0.0100    0.0100    0.0100    0.0100    0.0100
    0.0100    0.0100    0.0100    0.0100    0.0100    0.0100    0.0100    0.0100
    0.0100    0.0100    0.0100    0.0100    0.0100    0.0100    0.0100    0.0100
    0.0100    0.0100    0.0100    0.0100    0.0100    0.0100    0.0100    0.0100
    0.0100    0.0100    0.0100    0.0100    0.0100    0.0100    0.0100    0.0100
    0.0100    0.0100    0.0100    0.0100    0.0100    0.0100    0.0100    0.0100
    0.0100    0.0100    0.0100    0.0100    0.0100    0.0100    0.0100    0.0100
    0.0100    0.0100    0.0100    0.0100    0.0100    0.0100    0.0100    0.0100
    0.0100    0.0100    0.0100    0.0100    0.0100    0.0100    0.0100    0.0100
    0.0100    0.0100    0.0100    0.0100    0.0100    0.0100    0.0100    0.0100
    0.0100    0.0100    0.0100    0.0100    0.0100    0.0100    0.0100    0.0100
    0.0100    0.0100    0.0100    0.0100    0.0100    0.0100    0.0100    0.0100
    0.0100    0.0100    0.0100    0.0100    0.0100    0.0100    0.0100    0.0100
    0.0100    0.0100    0.0100    0.0100    0.0100    0.0100    0.0100    0.0100
    0.0100    0.0100    0.0100    0.0100    0.0100    0.0100    0.0100    0.0100
    0.0100    0.0100    0.0100    0.0100    0.0100    0.0100    0.0100    0.0100
    0.0100    0.0100    0.0100    0.0100    0.0100    0.0100    0.0100    0.0100
    0.0100    0.0100
   </PP_RAB>
 </PP_MESH>
  <PP_LOCAL type="real"  size=" 602" columns="4">
   -3.7015818227E+01   -3.7015347477E+01   -3.7014110924E+01   -3.7011901606E+01
   -3.7008512558E+01   -3.7003682716E+01   -3.6997120206E+01   -3.6988525986E+01
   -3.6977615065E+01   -3.6964133351E+01   -3.6947869158E+01   -3.6928659306E+01
   -3.6906390454E+01   -3.6880996672E+01   -3.6852454430E+01   -3.6820776116E+01
   -3.6786002981E+01   -3.6748198213E+01   -3.6707440598E+01   -3.6663819013E+01
   -3.6617427851E+01   -3.6568363382E+01   -3.6516720959E+01   -3.6462592967E+01
   -3.6406067382E+01   -3.6347226827E+01   -3.6286148005E+01   -3.6222901417E+01
   -3.6157551280E+01   -3.6090155593E+01   -3.6020766286E+01   -3.5949429423E+01
   -3.5876185435E+01   -3.5801069349E+01   -3.5724111033E+01   -3.5645335395E+01
   -3.5564762608E+01   -3.5482408267E+01   -3.5398283582E+01   -3.5312395535E+01
   -3.5224747022E+01   -3.5135337020E+01   -3.5044160750E+01   -3.4951209861E+01
   -3.4856472635E+01   -3.4759934234E+01   -3.4661576980E+01   -3.4561380691E+01
   -3.4459323057E+01   -3.4355380102E+01   -3.4249526690E+01   -3.4141737082E+01
   -3.4031985573E+01   -3.3920247166E+01   -3.3806498275E+01   -3.3690717513E+01
   -3.3572886357E+01   -3.3452990051E+01   -3.3331018112E+01   -3.3206965265E+01
   -3.3080831796E+01   -3.2952624244E+01   -3.2822355815E+01   -3.2690046428E+01
   -3.2555723326E+01   -3.2419420766E+01   -3.2281179903E+01   -3.2141048869E+01
   -3.1999082210E+01   -3.1855340449E+01   -3.1709889537E+01   -3.1562800415E+01
   -3.1414148242E+01   -3.1264011715E+01   -3.1112472409E+01   -3.0959614111E+01
   -3.0805522168E+01   -3.0650282886E+01   -3.0493982960E+01   -3.0336708959E+01
   -3.0178546888E+01   -3.0019581796E+01   -2.9859897454E+01   -2.9699576082E+01
   -2.9538698132E+01   -2.9377342119E+01   -2.9215584496E+01   -2.9053499560E+01
   -2.8891159399E+01   -2.8728633847E+01   -2.8565990476E+01   -2.8403294587E+01
   -2.8240609218E+01   -2.8077995178E+01   -2.7915511037E+01   -2.7753213092E+01
   -2.7591155458E+01   -2.7429390049E+01   -2.7267966580E+01   -2.7106932567E+01
   -2.6946333327E+01   -2.6786212054E+01   -2.6626609577E+01   -2.6467564469E+01
   -2.6309113067E+01   -2.6151289421E+01   -2.5994125336E+01   -2.5837650295E+01
   -2.5681891167E+01   -2.5526872579E+01   -2.5372616778E+01   -2.5219143880E+01
   -2.5066471139E+01   -2.4914613557E+01   -2.4763583860E+01   -2.4613392792E+01
   -2.4464048229E+01   -2.4315556088E+01   -2.4167920388E+01   -2.4021143215E+01
   -2.3875224348E+01   -2.3730162202E+01   -2.3585953932E+01   -2.3442594765E+01
   -2.3300079116E+01   -2.3158400630E+01   -2.3017551953E+01   -2.2877525476E+01
   -2.2738313362E+01   -2.2599907747E+01   -2.2462301227E+01   -2.2325486533E+01
   -2.2189457547E+01   -2.2054208987E+01   -2.1919736126E+01   -2.1786036449E+01
   -2.1653108034E+01   -2.1520950597E+01   -2.1389565955E+01   -2.1258956274E+01
   -2.1129126675E+01   -2.1000082921E+01   -2.0871832261E+01   -2.0744383998E+01
   -2.0617747487E+01   -2.0491934495E+01   -2.0366956729E+01   -2.0242827143E+01
   -2.0119559075E+01   -1.9997166216E+01   -1.9875662366E+01   -1.9755061433E+01
   -1.9635376668E+01   -1.9516621244E+01   -1.9398807288E+01   -1.9281946184E+01
   -1.9166048459E+01   -1.9051122816E+01   -1.8937177753E+01   -1.8824218696E+01
   -1.8712251742E+01   -1.8601278800E+01   -1.8491303305E+01   -1.8382323803E+01
   -1.8274340896E+01   -1.8167350357E+01   -1.8061349906E+01   -1.7956333370E+01
   -1.7852296031E+01   -1.7749230487E+01   -1.7647130278E+01   -1.7545987595E+01
   -1.7445794971E+01   -1.7346545016E+01   -1.7248229949E+01   -1.7150843400E+01
   -1.7054378051E+01   -1.6958828698E+01   -1.6864189140E+01   -1.6770455198E+01
   -1.6677622130E+01   -1.6585686474E+01   -1.6494644849E+01   -1.6404494207E+01
   -1.6315231947E+01   -1.6226855246E+01   -1.6139361304E+01   -1.6052747482E+01
   -1.5967009696E+01   -1.5882145235E+01   -1.5798148308E+01   -1.5715014772E+01
   -1.5632737821E+01   -1.5551310509E+01   -1.5470725523E+01   -1.5390973530E+01
   -1.5312046582E+01   -1.5233934117E+01   -1.5156626998E+01   -1.5080114363E+01
   -1.5004385466E+01   -1.4929429441E+01   -1.4855234418E+01   -1.4781789167E+01
   -1.4709081681E+01   -1.4637100079E+01   -1.4565832688E+01   -1.4495267906E+01
   -1.4425393721E+01   -1.4356199711E+01   -1.4287674283E+01   -1.4219807362E+01
   -1.4152589369E+01   -1.4086009757E+01   -1.4020060584E+01   -1.3954732779E+01
   -1.3890017804E+01   -1.3825907463E+01   -1.3762393296E+01   -1.3699467037E+01
   -1.3637120205E+01   -1.3575344522E+01   -1.3514132270E+01   -1.3453475248E+01
   -1.3393365863E+01   -1.3333796500E+01   -1.3274759216E+01   -1.3216247016E+01
   -1.3158252408E+01   -1.3100768105E+01   -1.3043787388E+01   -1.2987303004E+01
   -1.2931308335E+01   -1.2875796929E+01   -1.2820761804E+01   -1.2766196985E+01
   -1.2712096239E+01   -1.2658453006E+01   -1.2605261772E+01   -1.2552516526E+01
   -1.2500211259E+01   -1.2448340730E+01   -1.2396899215E+01   -1.2345881191E+01
   -1.2295281683E+01   -1.2245095255E+01   -1.2195316809E+01   -1.2145941611E+01
   -1.2096964530E+01   -1.2048380799E+01   -1.2000185873E+01   -1.1952374868E+01
   -1.1904943272E+01   -1.1857886746E+01   -1.1811200630E+01   -1.1764880629E+01
   -1.1718922631E+01   -1.1673322234E+01   -1.1628075306E+01   -1.1583177909E+01
   -1.1538625833E+01   -1.1494415080E+01   -1.1450541939E+01   -1.1407002435E+01
   -1.1363792678E+01   -1.1320909156E+01   -1.1278348117E+01   -1.1236105742E+01
   -1.1194178726E+01   -1.1152563544E+01   -1.1111256426E+01   -1.1070254265E+01
   -1.1029553705E+01   -1.0989151186E+01   -1.0949043613E+01   -1.0909227845E+01
   -1.0869700546E+01   -1.0830458598E+01   -1.0791499076E+01   -1.0752818874E+01
   -1.0714414827E+01   -1.0676284221E+01   -1.0638424146E+01   -1.0600831485E+01
   -1.0563503616E+01   -1.0526437799E+01   -1.0489631143E+01   -1.0453080924E+01
   -1.0416784625E+01   -1.0380739588E+01   -1.0344942971E+01   -1.0309392467E+01
   -1.0274085554E+01   -1.0239019574E+01   -1.0204192111E+01   -1.0169600858E+01
   -1.0135243393E+01   -1.0101117137E+01   -1.0067219998E+01   -1.0033549683E+01
   -1.0000103783E+01   -9.9668800714E+00   -9.9338764686E+00   -9.9010907892E+00
   -9.8685206545E+00   -9.8361641503E+00   -9.8040192086E+00   -9.7720836825E+00
   -9.7403554319E+00   -9.7088326171E+00   -9.6775132517E+00   -9.6463952226E+00
   -9.6154766444E+00   -9.5847557039E+00   -9.5542305074E+00   -9.5238989874E+00
   -9.4937594777E+00   -9.4638101955E+00   -9.4340493111E+00   -9.4044748841E+00
   -9.3750853605E+00   -9.3458790187E+00   -9.3168540776E+00   -9.2880087663E+00
   -9.2593415757E+00   -9.2308508644E+00   -9.2025349068E+00   -9.1743920742E+00
   -9.1464209062E+00   -9.1186198381E+00   -9.0909872058E+00   -9.0635214961E+00
   -9.0362213028E+00   -9.0090851337E+00   -8.9821113923E+00   -8.9552986554E+00
   -8.9286455762E+00   -8.9021507322E+00   -8.8758125987E+00   -8.8496298193E+00
   -8.8236011118E+00   -8.7977251201E+00   -8.7720003961E+00   -8.7464256280E+00
   -8.7209996032E+00   -8.6957210287E+00   -8.6705885379E+00   -8.6456008427E+00
   -8.6207568045E+00   -8.5960551908E+00   -8.5714947207E+00   -8.5470741107E+00
   -8.5227923001E+00   -8.4986481138E+00   -8.4746403614E+00   -8.4507677466E+00
   -8.4270292892E+00   -8.4034238687E+00   -8.3799503648E+00   -8.3566075275E+00
   -8.3333943847E+00   -8.3103098924E+00   -8.2873529824E+00   -8.2645225027E+00
   -8.2418174261E+00   -8.2192368031E+00   -8.1967796155E+00   -8.1744448146E+00
   -8.1522313036E+00   -8.1301382285E+00   -8.1081646183E+00   -8.0863095020E+00
   -8.0645717942E+00   -8.0429506436E+00   -8.0214451543E+00   -8.0000544006E+00
   -7.9787774074E+00   -7.9576132196E+00   -7.9365610472E+00   -7.9156200076E+00
   -7.8947892182E+00   -7.8740676824E+00   -7.8534546418E+00   -7.8329492783E+00
   -7.8125507502E+00   -7.7922581788E+00   -7.7720706724E+00   -7.7519875263E+00
   -7.7320079381E+00   -7.7121311056E+00   -7.6923561399E+00   -7.6726823033E+00
   -7.6531088767E+00   -7.6336350953E+00   -7.6142601942E+00   -7.5949832847E+00
   -7.5758037580E+00   -7.5567208870E+00   -7.5377339424E+00   -7.5188421623E+00
   -7.5000447653E+00   -7.4813411490E+00   -7.4627306182E+00   -7.4442124775E+00
   -7.4257859734E+00   -7.4074504183E+00   -7.3892052146E+00   -7.3710496995E+00
   -7.3529832102E+00   -7.3350050080E+00   -7.3171144796E+00   -7.2993110381E+00
   -7.2815940515E+00   -7.2639628877E+00   -7.2464168298E+00   -7.2289553194E+00
   -7.2115777863E+00   -7.1942836281E+00   -7.1770722420E+00   -7.1599429382E+00
   -7.1428951957E+00   -7.1259284671E+00   -7.1090421778E+00   -7.0922357535E+00
   -7.0755085361E+00   -7.0588600259E+00   -7.0422897037E+00   -7.0257970217E+00
   -7.0093814322E+00   -6.9930423143E+00   -6.9767791738E+00   -6.9605915250E+00
   -6.9444788458E+00   -6.9284406138E+00   -6.9124762501E+00   -6.8965852514E+00
   -6.8807671704E+00   -6.8650215092E+00   -6.8493477700E+00   -6.8337454202E+00
   -6.8182139342E+00   -6.8027529071E+00   -6.7873618643E+00   -6.7720403311E+00
   -6.7567878261E+00   -6.7416037891E+00   -6.7264878610E+00   -6.7114395892E+00
   -6.6964585212E+00   -6.6815442046E+00   -6.6666961135E+00   -6.6519138575E+00
   -6.6371970315E+00   -6.6225452040E+00   -6.6079579437E+00   -6.5934347849E+00
   -6.5789752737E+00   -6.5645790619E+00   -6.5502457384E+00   -6.5359748916E+00
   -6.5217661103E+00   -6.5076188996E+00   -6.4935329380E+00   -6.4795078436E+00
   -6.4655432245E+00   -6.4516386884E+00   -6.4377938086E+00   -6.4240081755E+00
   -6.4102814735E+00   -6.3966133288E+00   -6.3830033675E+00   -6.3694512157E+00
   -6.3559564290E+00   -6.3425186974E+00   -6.3291376842E+00   -6.3158130331E+00
   -6.3025443875E+00   -6.2893313795E+00   -6.2761735897E+00   -6.2630707544E+00
   -6.2500225337E+00   -6.2370285878E+00   -6.2240885767E+00   -6.2112021254E+00
   -6.1983688839E+00   -6.1855885795E+00   -6.1728608884E+00   -6.1601854863E+00
   -6.1475620494E+00   -6.1349902015E+00   -6.1224696469E+00   -6.1100001092E+00
   -6.0975812797E+00   -6.0852128492E+00   -6.0728945090E+00   -6.0606258882E+00
   -6.0484067297E+00   -6.0362367595E+00   -6.0241156831E+00   -6.0120432059E+00
   -6.0000190334E+00   -5.9880428052E+00   -5.9761142891E+00   -5.9642332188E+00
   -5.9523993134E+00   -5.9406122920E+00   -5.9288718740E+00   -5.9171777142E+00
   -5.9055295923E+00   -5.8939272546E+00   -5.8823704335E+00   -5.8708588613E+00
   -5.8593922701E+00   -5.8479703352E+00   -5.8365928352E+00   -5.8252595346E+00
   -5.8139701781E+00   -5.8027245104E+00   -5.7915222762E+00   -5.7803631753E+00
   -5.7692469740E+00   -5.7581734592E+00   -5.7471423876E+00   -5.7361535157E+00
   -5.7252066001E+00   -5.7143013696E+00   -5.7034375672E+00   -5.6926150065E+00
   -5.6818334553E+00   -5.6710926816E+00   -5.6603924534E+00   -5.6497325326E+00
   -5.6391126291E+00   -5.6285325865E+00   -5.6179921834E+00   -5.6074911987E+00
   -5.5970294111E+00   -5.5866065994E+00   -5.5762224927E+00   -5.5658769063E+00
   -5.5555696495E+00   -5.5453005114E+00   -5.5350692811E+00   -5.5248757476E+00
   -5.5147196819E+00   -5.5046008436E+00   -5.4945190815E+00   -5.4844741947E+00
   -5.4744659819E+00   -5.4644942421E+00   -5.4545587742E+00   -5.4446593279E+00
   -5.4347957405E+00   -5.4249678378E+00   -5.4151754281E+00   -5.4054183196E+00
   -5.3956963206E+00   -5.3860092304E+00   -5.3763568116E+00   -5.3667389370E+00
   -5.3571554239E+00   -5.3476060895E+00   -5.3380907509E+00   -5.3286092254E+00
   -5.3191613012E+00   -5.3097467934E+00   -5.3003655624E+00   -5.2910174340E+00
   -5.2817022340E+00   -5.2724197880E+00   -5.2631699217E+00   -5.2539524180E+00
   -5.2447671317E+00   -5.2356139159E+00   -5.2264926043E+00   -5.2174030309E+00
   -5.2083450295E+00   -5.1993184339E+00   -5.1903230268E+00   -5.1813586904E+00
   -5.1724252754E+00   -5.1635226235E+00   -5.1546505762E+00   -5.1458089751E+00
   -5.1369976619E+00   -5.1282164238E+00   -5.1194651587E+00   -5.1107437202E+00
   -5.1020519572E+00   -5.0933897187E+00   -5.0847568536E+00   -5.0761532110E+00
   -5.0675785874E+00   -5.0590328852E+00   -5.0505159657E+00   -5.0420276848E+00
   -5.0335678985E+00   -5.0251364628E+00   -5.0167332338E+00   -5.0083580212E+00
   -5.0000107223E+00   -4.9916912101E+00
  </PP_LOCAL>
 <PP_NONLOCAL>
   <PP_BETA.1
       type="real"
       size=" 602"
       columns="4"
       index="1"
       angular_momentum="0"
       cutoff_radius_index=" 252"
       cutoff_radius="    2.5100000000E+00" >
    0.0000000000E+00    5.3934833370E-02    1.0775431157E-01    1.6134333908E-01
    2.1458733915E-01    2.6737251152E-01    3.1958608847E-01    3.7111658834E-01
    4.2185406591E-01    4.7169035931E-01    5.2051933253E-01    5.6823711317E-01
    6.1474232485E-01    6.5993631367E-01    7.0372336815E-01    7.4601093233E-01
    7.8670981115E-01    8.2573436821E-01    8.6300271473E-01    8.9843688986E-01
    9.3196303166E-01    9.6351153830E-01    9.9301721941E-01    1.0204194366E+00
    1.0456622337E+00    1.0686944559E+00    1.0894698568E+00    1.1079471951E+00
    1.1240903191E+00    1.1378682385E+00    1.1492551851E+00    1.1582306605E+00
    1.1647794722E+00    1.1688917570E+00    1.1705629907E+00    1.1697939885E+00
    1.1665908887E+00    1.1609651281E+00    1.1529334025E+00    1.1425176156E+00
    1.1297448168E+00    1.1146471255E+00    1.0972616455E+00    1.0776303664E+00
    1.0558000551E+00    1.0318221349E+00    1.0057525564E+00    9.7765165640E-01
    9.4758400407E-01    9.1561824335E-01    8.8182692437E-01    8.4628632939E-01
    8.0907626845E-01    7.7027990945E-01    7.2998356454E-01    6.8827646979E-01
    6.4525061107E-01    6.0100043723E-01    5.5562272053E-01    5.0921623204E-01
    4.6188159463E-01    4.1372098785E-01    3.6483790880E-01    3.1533700928E-01
    2.6532370836E-01    2.1490405872E-01    1.6418451439E-01    1.1327157432E-01
    6.2271612713E-02    1.1290639560E-02   -3.9565918856E-02   -9.0193555793E-02
   -1.4048885759E-01   -1.9034972493E-01   -2.3967561540E-01   -2.8836776789E-01
   -3.3632940661E-01   -3.8346597626E-01   -4.2968537443E-01   -4.7489809222E-01
   -5.1901743030E-01   -5.6195968310E-01   -6.0364431468E-01   -6.4399412593E-01
   -6.8293541261E-01   -7.2039811397E-01   -7.5631595160E-01   -7.9062655808E-01
   -8.2327159535E-01   -8.5419686224E-01   -8.8335239124E-01   -9.1069253394E-01
   -9.3617603521E-01   -9.5976607014E-01   -9.8143032597E-01   -1.0011411035E+00