<UPF version="2.0.1">
  <PP_INFO>

 This pseudopotential file has been produced using the code
 ONCVPSP  (Optimized Norm-Conservinng Vanderbilt PSeudopotential)
 scalar-relativistic version 2.1.1, 03/26/2014 by D. R. Hamann
 The code is available through a link at URL www.mat-simresearch.com.
 Documentation with the package provides a full discription of the
 input data below.


 While it is not required under the terms of the GNU GPL, it is
 suggested that you cite D. R. Hamann, Phys. Rev. B 88, 085117 (2013)
 in any publication using these pseudopotentials.


 Copyright 2015 The Regents of the University of California
 
 This work is licensed under the Creative Commons Attribution-ShareAlike 
 4.0 International License. To view a copy of this license, visit 
 http://creativecommons.org/licenses/by-sa/4.0/ or send a letter to 
 Creative Commons, PO Box 1866, Mountain View, CA 94042, USA.
 
 This pseudopotential is part of the Schlipf-Gygi norm-conserving 
 pseudopotential library. Its construction parameters were tuned to 
 reproduce materials of a training set with very high accuracy and 
 should be suitable as a general purpose pseudopotential to treat a 
 variety of different compounds. For details of the construction and 
 testing of the pseudopotential please refer to:
 
 [insert reference to paper here]
 
 We kindly ask that you include this reference in all publications 
 associated to this pseudopotential.


    <PP_INPUTFILE>
# ATOM AND REFERENCE CONFIGURATION
# atsym  z    nc    nv    iexc   psfile
  Nb 41.00     6     4     4      upf
#
#   n    l    f        energy (Ha)
    1    0    2.00
    2    0    2.00
    2    1    6.00
    3    0    2.00
    3    1    6.00
    3    2   10.00
    4    0    2.00
    4    1    6.00
    5    0    2.00
    4    2    3.00
#
# PSEUDOPOTENTIAL AND OPTIMIZATION
# lmax
    2
#
#   l,   rc,     ep,   ncon, nbas, qcut
    0   1.65987  -2.23546    5    8   7.07977
    1   1.62074  -1.35297    5    8   7.18907
    2   1.64019  -0.17034    5    8   7.38780
#
# LOCAL POTENTIAL
# lloc, lpopt,  rc(5),   dvloc0
    4    5   1.45576      0.00000
#
# VANDERBILT-KLEINMAN-BYLANDER PROJECTORs
# l, nproj, debl
    0    2   2.06334
    1    2   2.08284
    2    2   1.25266
#
# MODEL CORE CHARGE
# icmod, fcfact
    0   0.00000
#
# LOG DERIVATIVE ANALYSIS
# epsh1, epsh2, depsh
   -5.00    3.00    0.02
#
# OUTPUT GRID
# rlmax, drl
    6.00    0.01
#
# TEST CONFIGURATIONS
# ncnf
    0
# nvcnf
#   n    l    f
    </PP_INPUTFILE>
  </PP_INFO>
  <!--                               -->
  <!-- END OF HUMAN READABLE SECTION -->
  <!--                               -->
    <PP_HEADER
       generated="Generated using ONCVPSP code by D. R. Hamann"
       author="Martin Schlipf and Francois Gygi"
       date="150105"
       comment=""
       element="Nb"
       pseudo_type="NC"
       relativistic="scalar"
       is_ultrasoft="F"
       is_paw="F"
       is_coulomb="F"
       has_so="F"
       has_wfc="F"
       has_gipaw="F"
       core_correction="F"
       functional="PBE"
       z_valence="   13.00"
       total_psenergy="  -5.67162168117E+01"
       rho_cutoff="   6.01000000000E+00"
       l_max="2"
       l_local="-1"
       mesh_size="   602"
       number_of_wfc="0"
       number_of_proj="6"/>
 <PP_MESH>
   <PP_R type="real"  size=" 602" columns="8">
    0.0000    0.0100    0.0200    0.0300    0.0400    0.0500    0.0600    0.0700
    0.0800    0.0900    0.1000    0.1100    0.1200    0.1300    0.1400    0.1500
    0.1600    0.1700    0.1800    0.1900    0.2000    0.2100    0.2200    0.2300
    0.2400    0.2500    0.2600    0.2700    0.2800    0.2900    0.3000    0.3100
    0.3200    0.3300    0.3400    0.3500    0.3600    0.3700    0.3800    0.3900
    0.4000    0.4100    0.4200    0.4300    0.4400    0.4500    0.4600    0.4700
    0.4800    0.4900    0.5000    0.5100    0.5200    0.5300    0.5400    0.5500
    0.5600    0.5700    0.5800    0.5900    0.6000    0.6100    0.6200    0.6300
    0.6400    0.6500    0.6600    0.6700    0.6800    0.6900    0.7000    0.7100
    0.7200    0.7300    0.7400    0.7500    0.7600    0.7700    0.7800    0.7900
    0.8000    0.8100    0.8200    0.8300    0.8400    0.8500    0.8600    0.8700
    0.8800    0.8900    0.9000    0.9100    0.9200    0.9300    0.9400    0.9500
    0.9600    0.9700    0.9800    0.9900    1.0000    1.0100    1.0200    1.0300
    1.0400    1.0500    1.0600    1.0700    1.0800    1.0900    1.1000    1.1100
    1.1200    1.1300    1.1400    1.1500    1.1600    1.1700    1.1800    1.1900
    1.2000    1.2100    1.2200    1.2300    1.2400    1.2500    1.2600    1.2700
    1.2800    1.2900    1.3000    1.3100    1.3200    1.3300    1.3400    1.3500
    1.3600    1.3700    1.3800    1.3900    1.4000    1.4100    1.4200    1.4300
    1.4400    1.4500    1.4600    1.4700    1.4800    1.4900    1.5000    1.5100
    1.5200    1.5300    1.5400    1.5500    1.5600    1.5700    1.5800    1.5900
    1.6000    1.6100    1.6200    1.6300    1.6400    1.6500    1.6600    1.6700
    1.6800    1.6900    1.7000    1.7100    1.7200    1.7300    1.7400    1.7500
    1.7600    1.7700    1.7800    1.7900    1.8000    1.8100    1.8200    1.8300
    1.8400    1.8500    1.8600    1.8700    1.8800    1.8900    1.9000    1.9100
    1.9200    1.9300    1.9400    1.9500    1.9600    1.9700    1.9800    1.9900
    2.0000    2.0100    2.0200    2.0300    2.0400    2.0500    2.0600    2.0700
    2.0800    2.0900    2.1000    2.1100    2.1200    2.1300    2.1400    2.1500
    2.1600    2.1700    2.1800    2.1900    2.2000    2.2100    2.2200    2.2300
    2.2400    2.2500    2.2600    2.2700    2.2800    2.2900    2.3000    2.3100
    2.3200    2.3300    2.3400    2.3500    2.3600    2.3700    2.3800    2.3900
    2.4000    2.4100    2.4200    2.4300    2.4400    2.4500    2.4600    2.4700
    2.4800    2.4900    2.5000    2.5100    2.5200    2.5300    2.5400    2.5500
    2.5600    2.5700    2.5800    2.5900    2.6000    2.6100    2.6200    2.6300
    2.6400    2.6500    2.6600    2.6700    2.6800    2.6900    2.7000    2.7100
    2.7200    2.7300    2.7400    2.7500    2.7600    2.7700    2.7800    2.7900
    2.8000    2.8100    2.8200    2.8300    2.8400    2.8500    2.8600    2.8700
    2.8800    2.8900    2.9000    2.9100    2.9200    2.9300    2.9400    2.9500
    2.9600    2.9700    2.9800    2.9900    3.0000    3.0100    3.0200    3.0300
    3.0400    3.0500    3.0600    3.0700    3.0800    3.0900    3.1000    3.1100
    3.1200    3.1300    3.1400    3.1500    3.1600    3.1700    3.1800    3.1900
    3.2000    3.2100    3.2200    3.2300    3.2400    3.2500    3.2600    3.2700
    3.2800    3.2900    3.3000    3.3100    3.3200    3.3300    3.3400    3.3500
    3.3600    3.3700    3.3800    3.3900    3.4000    3.4100    3.4200    3.4300
    3.4400    3.4500    3.4600    3.4700    3.4800    3.4900    3.5000    3.5100
    3.5200    3.5300    3.5400    3.5500    3.5600    3.5700    3.5800    3.5900
    3.6000    3.6100    3.6200    3.6300    3.6400    3.6500    3.6600    3.6700
    3.6800    3.6900    3.7000    3.7100    3.7200    3.7300    3.7400    3.7500
    3.7600    3.7700    3.7800    3.7900    3.8000    3.8100    3.8200    3.8300
    3.8400    3.8500    3.8600    3.8700    3.8800    3.8900    3.9000    3.9100
    3.9200    3.9300    3.9400    3.9500    3.9600    3.9700    3.9800    3.9900
    4.0000    4.0100    4.0200    4.0300    4.0400    4.0500    4.0600    4.0700
    4.0800    4.0900    4.1000    4.1100    4.1200    4.1300    4.1400    4.1500
    4.1600    4.1700    4.1800    4.1900    4.2000    4.2100    4.2200    4.2300
    4.2400    4.2500    4.2600    4.2700    4.2800    4.2900    4.3000    4.3100
    4.3200    4.3300    4.3400    4.3500    4.3600    4.3700    4.3800    4.3900
    4.4000    4.4100    4.4200    4.4300    4.4400    4.4500    4.4600    4.4700
    4.4800    4.4900    4.5000    4.5100    4.5200    4.5300    4.5400    4.5500
    4.5600    4.5700    4.5800    4.5900    4.6000    4.6100    4.6200    4.6300
    4.6400    4.6500    4.6600    4.6700    4.6800    4.6900    4.7000    4.7100
    4.7200    4.7300    4.7400    4.7500    4.7600    4.7700    4.7800    4.7900
    4.8000    4.8100    4.8200    4.8300    4.8400    4.8500    4.8600    4.8700
    4.8800    4.8900    4.9000    4.9100    4.9200    4.9300    4.9400    4.9500
    4.9600    4.9700    4.9800    4.9900    5.0000    5.0100    5.0200    5.0300
    5.0400    5.0500    5.0600    5.0700    5.0800    5.0900    5.1000    5.1100
    5.1200    5.1300    5.1400    5.1500    5.1600    5.1700    5.1800    5.1900
    5.2000    5.2100    5.2200    5.2300    5.2400    5.2500    5.2600    5.2700
    5.2800    5.2900    5.3000    5.3100    5.3200    5.3300    5.3400    5.3500
    5.3600    5.3700    5.3800    5.3900    5.4000    5.4100    5.4200    5.4300
    5.4400    5.4500    5.4600    5.4700    5.4800    5.4900    5.5000    5.5100
    5.5200    5.5300    5.5400    5.5500    5.5600    5.5700    5.5800    5.5900
    5.6000    5.6100    5.6200    5.6300    5.6400    5.6500    5.6600    5.6700
    5.6800    5.6900    5.7000    5.7100    5.7200    5.7300    5.7400    5.7500
    5.7600    5.7700    5.7800    5.7900    5.8000    5.8100    5.8200    5.8300
    5.8400    5.8500    5.8600    5.8700    5.8800    5.8900    5.9000    5.9100
    5.9200    5.9300    5.9400    5.9500    5.9600    5.9700    5.9800    5.9900
    6.0000    6.0100
   </PP_R>
   <PP_RAB type="real"  size=" 602" columns="8">
    0.0100    0.0100    0.0100    0.0100    0.0100    0.0100    0.0100    0.0100
    0.0100    0.0100    0.0100    0.0100    0.0100    0.0100    0.0100    0.0100
    0.0100    0.0100    0.0100    0.0100    0.0100    0.0100    0.0100    0.0100
    0.0100    0.0100    0.0100    0.0100    0.0100    0.0100    0.0100    0.0100
    0.0100    0.0100    0.0100    0.0100    0.0100    0.0100    0.0100    0.0100
    0.0100    0.0100    0.0100    0.0100    0.0100    0.0100    0.0100    0.0100
    0.0100    0.0100    0.0100    0.0100    0.0100    0.0100    0.0100    0.0100
    0.0100    0.0100    0.0100    0.0100    0.0100    0.0100    0.0100    0.0100
    0.0100    0.0100    0.0100    0.0100    0.0100    0.0100    0.0100    0.0100
    0.0100    0.0100    0.0100    0.0100    0.0100    0.0100    0.0100    0.0100
    0.0100    0.0100    0.0100    0.0100    0.0100    0.0100    0.0100    0.0100
    0.0100    0.0100    0.0100    0.0100    0.0100    0.0100    0.0100    0.0100
    0.0100    0.0100    0.0100    0.0100    0.0100    0.0100    0.0100    0.0100
    0.0100    0.0100    0.0100    0.0100    0.0100    0.0100    0.0100    0.0100
    0.0100    0.0100    0.0100    0.0100    0.0100    0.0100    0.0100    0.0100
    0.0100    0.0100    0.0100    0.0100    0.0100    0.0100    0.0100    0.0100
    0.0100    0.0100    0.0100    0.0100    0.0100    0.0100    0.0100    0.0100
    0.0100    0.0100    0.0100    0.0100    0.0100    0.0100    0.0100    0.0100
    0.0100    0.0100    0.0100    0.0100    0.0100    0.0100    0.0100    0.0100
    0.0100    0.0100    0.0100    0.0100    0.0100    0.0100    0.0100    0.0100
    0.0100    0.0100    0.0100    0.0100    0.0100    0.0100    0.0100    0.0100
    0.0100    0.0100    0.0100    0.0100    0.0100    0.0100    0.0100    0.0100
    0.0100    0.0100    0.0100    0.0100    0.0100    0.0100    0.0100    0.0100
    0.0100    0.0100    0.0100    0.0100    0.0100    0.0100    0.0100    0.0100
    0.0100    0.0100    0.0100    0.0100    0.0100    0.0100    0.0100    0.0100
    0.0100    0.0100    0.0100    0.0100    0.0100    0.0100    0.0100    0.0100
    0.0100    0.0100    0.0100    0.0100    0.0100    0.0100    0.0100    0.0100
    0.0100    0.0100    0.0100    0.0100    0.0100    0.0100    0.0100    0.0100
    0.0100    0.0100    0.0100    0.0100    0.0100    0.0100    0.0100    0.0100
    0.0100    0.0100    0.0100    0.0100    0.0100    0.0100    0.0100    0.0100
    0.0100    0.0100    0.0100    0.0100    0.0100    0.0100    0.0100    0.0100
    0.0100    0.0100    0.0100    0.0100    0.0100    0.0100    0.0100    0.0100
    0.0100    0.0100    0.0100    0.0100    0.0100    0.0100    0.0100    0.0100
    0.0100    0.0100    0.0100    0.0100    0.0100    0.0100    0.0100    0.0100
    0.0100    0.0100    0.0100    0.0100    0.0100    0.0100    0.0100    0.0100
    0.0100    0.0100    0.0100    0.0100    0.0100    0.0100    0.0100    0.0100
    0.0100    0.0100    0.0100    0.0100    0.0100    0.0100    0.0100    0.0100
    0.0100    0.0100    0.0100    0.0100    0.0100    0.0100    0.0100    0.0100
    0.0100    0.0100    0.0100    0.0100    0.0100    0.0100    0.0100    0.0100
    0.0100    0.0100    0.0100    0.0100    0.0100    0.0100    0.0100    0.0100
    0.0100    0.0100    0.0100    0.0100    0.0100    0.0100    0.0100    0.0100
    0.0100    0.0100    0.0100    0.0100    0.0100    0.0100    0.0100    0.0100
    0.0100    0.0100    0.0100    0.0100    0.0100    0.0100    0.0100    0.0100
    0.0100    0.0100    0.0100    0.0100    0.0100    0.0100    0.0100    0.0100
    0.0100    0.0100    0.0100    0.0100    0.0100    0.0100    0.0100    0.0100
    0.0100    0.0100    0.0100    0.0100    0.0100    0.0100    0.0100    0.0100
    0.0100    0.0100    0.0100    0.0100    0.0100    0.0100    0.0100    0.0100
    0.0100    0.0100    0.0100    0.0100    0.0100    0.0100    0.0100    0.0100
    0.0100    0.0100    0.0100    0.0100    0.0100    0.0100    0.0100    0.0100
    0.0100    0.0100    0.0100    0.0100    0.0100    0.0100    0.0100    0.0100
    0.0100    0.0100    0.0100    0.0100    0.0100    0.0100    0.0100    0.0100
    0.0100    0.0100    0.0100    0.0100    0.0100    0.0100    0.0100    0.0100
    0.0100    0.0100    0.0100    0.0100    0.0100    0.0100    0.0100    0.0100
    0.0100    0.0100    0.0100    0.0100    0.0100    0.0100    0.0100    0.0100
    0.0100    0.0100    0.0100    0.0100    0.0100    0.0100    0.0100    0.0100
    0.0100    0.0100    0.0100    0.0100    0.0100    0.0100    0.0100    0.0100
    0.0100    0.0100    0.0100    0.0100    0.0100    0.0100    0.0100    0.0100
    0.0100    0.0100    0.0100    0.0100    0.0100    0.0100    0.0100    0.0100
    0.0100    0.0100    0.0100    0.0100    0.0100    0.0100    0.0100    0.0100
    0.0100    0.0100    0.0100    0.0100    0.0100    0.0100    0.0100    0.0100
    0.0100    0.0100    0.0100    0.0100    0.0100    0.0100    0.0100    0.0100
    0.0100    0.0100    0.0100    0.0100    0.0100    0.0100    0.0100    0.0100
    0.0100    0.0100    0.0100    0.0100    0.0100    0.0100    0.0100    0.0100
    0.0100    0.0100    0.0100    0.0100    0.0100    0.0100    0.0100    0.0100
    0.0100    0.0100    0.0100    0.0100    0.0100    0.0100    0.0100    0.0100
    0.0100    0.0100    0.0100    0.0100    0.0100    0.0100    0.0100    0.0100
    0.0100    0.0100    0.0100    0.0100    0.0100    0.0100    0.0100    0.0100
    0.0100    0.0100    0.0100    0.0100    0.0100    0.0100    0.0100    0.0100
    0.0100    0.0100    0.0100    0.0100    0.0100    0.0100    0.0100    0.0100
    0.0100    0.0100    0.0100    0.0100    0.0100    0.0100    0.0100    0.0100
    0.0100    0.0100    0.0100    0.0100    0.0100    0.0100    0.0100    0.0100
    0.0100    0.0100    0.0100    0.0100    0.0100    0.0100    0.0100    0.0100
    0.0100    0.0100    0.0100    0.0100    0.0100    0.0100    0.0100    0.0100
    0.0100    0.0100    0.0100    0.0100    0.0100    0.0100    0.0100    0.0100
    0.0100    0.0100    0.0100    0.0100    0.0100    0.0100    0.0100    0.0100
    0.0100    0.0100
   </PP_RAB>
 </PP_MESH>
  <PP_LOCAL type="real"  size=" 602" columns="4">
   -7.4061911837E+01   -4.9254477282E+01   -4.0328462771E+01   -3.9637039955E+01
   -3.9533380482E+01   -3.9478861929E+01   -3.9431865698E+01   -3.9387448310E+01
   -3.9344609139E+01   -3.9303092583E+01   -3.9262888773E+01   -3.9224067858E+01
   -3.9186687631E+01   -3.9150734171E+01   -3.9116083555E+01   -3.9082478825E+01
   -3.9049518919E+01   -3.9016657780E+01   -3.8983212460E+01   -3.8948379339E+01
   -3.8911257563E+01   -3.8870878498E+01   -3.8826239854E+01   -3.8776342768E+01
   -3.8720230006E+01   -3.8657023215E+01   -3.8585957418E+01   -3.8506410625E+01
   -3.8417927120E+01   -3.8320233174E+01   -3.8213244267E+01   -3.8097063512E+01
   -3.7971971432E+01   -3.7838407678E+01   -3.7696946927E+01   -3.7548268442E+01
   -3.7393124164E+01   -3.7232304983E+01   -3.7066609096E+01   -3.6896813334E+01
   -3.6723649528E+01   -3.6547786540E+01   -3.6369818371E+01   -3.6190258099E+01
   -3.6009536948E+01   -3.5828007490E+01   -3.5645949836E+01   -3.5463579705E+01
   -3.5281057385E+01   -3.5098496878E+01   -3.4915973954E+01   -3.4733534391E+01
   -3.4551200532E+01   -3.4368976471E+01   -3.4186852929E+01   -3.4004810640E+01
   -3.3822822981E+01   -3.3640858142E+01   -3.3458880402E+01   -3.3276851277E+01
   -3.3094730097E+01   -3.2912474472E+01   -3.2730040560E+01   -3.2547383142E+01
   -3.2364455768E+01   -3.2181210776E+01   -3.1997599321E+01   -3.1813571509E+01
   -3.1629076524E+01   -3.1444062814E+01   -3.1258478412E+01   -3.1072271318E+01
   -3.0885389988E+01   -3.0697783891E+01   -3.0509404282E+01   -3.0320204961E+01
   -3.0130143167E+01   -2.9939180560E+01   -2.9747284250E+01   -2.9554427875E+01
   -2.9360592673E+01   -2.9165768534E+01   -2.8969954976E+01   -2.8773162021E+01
   -2.8575410916E+01   -2.8376734669E+01   -2.8177178367E+01   -2.7976799248E+01
   -2.7775666516E+01   -2.7573860879E+01   -2.7371473839E+01   -2.7168606735E+01
   -2.6965369569E+01   -2.6761879664E+01   -2.6558260191E+01   -2.6354638618E+01
   -2.6151145134E+01   -2.5947911117E+01   -2.5745067725E+01   -2.5542744273E+01
   -2.5341067098E+01   -2.5140158461E+01   -2.4940135639E+01   -2.4741110206E+01
   -2.4543187952E+01   -2.4346466963E+01   -2.4151038768E+01   -2.3956987865E+01
   -2.3764391842E+01   -2.3573321785E+01   -2.3383840828E+01   -2.3196006249E+01
   -2.3009869235E+01   -2.2825475839E+01   -2.2642865239E+01   -2.2462072141E+01
   -2.2283126781E+01   -2.2106055388E+01   -2.1930879036E+01   -2.1757615829E+01
   -2.1586280980E+01   -2.1416885936E+01   -2.1249439418E+01   -2.1083948134E+01
   -2.0920416301E+01   -2.0758845636E+01   -2.0599236513E+01   -2.0441587523E+01
   -2.0285895147E+01   -2.0132154953E+01   -1.9980361007E+01   -1.9830505663E+01
   -1.9682580611E+01   -1.9536575968E+01   -1.9392480463E+01   -1.9250282345E+01
   -1.9109967749E+01   -1.8971521944E+01   -1.8834929287E+01   -1.8700171691E+01
   -1.8567230768E+01   -1.8436085670E+01   -1.8306713900E+01   -1.8179092135E+01
   -1.8053193114E+01   -1.7928989725E+01   -1.7806450133E+01   -1.7685543262E+01
   -1.7566236766E+01   -1.7448501025E+01   -1.7332306475E+01   -1.7217626400E+01
   -1.7104433554E+01   -1.6992702875E+01   -1.6882409068E+01   -1.6773527980E+01
   -1.6666035540E+01   -1.6559908121E+01   -1.6455122146E+01   -1.6351654245E+01
   -1.6249480625E+01   -1.6148577350E+01   -1.6048920873E+01   -1.5950487103E+01
   -1.5853254023E+01   -1.5757198846E+01   -1.5662300514E+01   -1.5568536914E+01
   -1.5475888690E+01   -1.5384335318E+01   -1.5293858350E+01   -1.5204438437E+01
   -1.5116057726E+01   -1.5028697504E+01   -1.4942340861E+01   -1.4856970064E+01
   -1.4772568868E+01   -1.4689120411E+01   -1.4606609068E+01   -1.4525018838E+01
   -1.4444334648E+01   -1.4364541352E+01   -1.4285624358E+01   -1.4207569364E+01
   -1.4130362203E+01   -1.4053989400E+01   -1.3978437161E+01   -1.3903692811E+01
   -1.3829742921E+01   -1.3756575441E+01   -1.3684177632E+01   -1.3612537687E+01
   -1.3541643671E+01   -1.3471483964E+01   -1.3402047428E+01   -1.3333322593E+01
   -1.3265299024E+01   -1.3197965609E+01   -1.3131312260E+01   -1.3065328566E+01
   -1.3000004477E+01   -1.2935330366E+01   -1.2871296198E+01   -1.2807892965E+01
   -1.2745111053E+01   -1.2682941567E+01   -1.2621375623E+01   -1.2560404242E+01
   -1.2500019211E+01   -1.2440211750E+01   -1.2380973876E+01   -1.2322297465E+01
   -1.2264174378E+01   -1.2206597154E+01   -1.2149557800E+01   -1.2093049045E+01
   -1.2037063540E+01   -1.1981593794E+01   -1.1926633059E+01   -1.1872174101E+01
   -1.1818210171E+01   -1.1764734715E+01   -1.1711740732E+01   -1.1659222139E+01
   -1.1607172440E+01   -1.1555585252E+01   -1.1504454706E+01   -1.1453774505E+01
   -1.1403538844E+01   -1.1353742037E+01   -1.1304378002E+01   -1.1255441449E+01
   -1.1206926803E+01   -1.1158828401E+01   -1.1111141210E+01   -1.1063859827E+01
   -1.1016979025E+01   -1.0970493955E+01   -1.0924399410E+01   -1.0878690554E+01
   -1.0833362715E+01   -1.0788410887E+01   -1.0743830576E+01   -1.0699617287E+01
   -1.0655766215E+01   -1.0612273163E+01   -1.0569133816E+01   -1.0526343567E+01
   -1.0483898479E+01   -1.0441794415E+01   -1.0400026966E+01   -1.0358592418E+01
   -1.0317486809E+01   -1.0276705934E+01   -1.0236246261E+01   -1.0196104013E+01
   -1.0156275173E+01   -1.0116756369E+01   -1.0077544006E+01   -1.0038634260E+01
   -1.0000023884E+01   -9.9617094663E+00   -9.9236873744E+00   -9.8859544586E+00
   -9.8485074910E+00   -9.8113430320E+00   -9.7744580005E+00   -9.7378493532E+00
   -9.7015138446E+00   -9.6654484362E+00   -9.6296502685E+00   -9.5941162925E+00
   -9.5588434887E+00   -9.5238291790E+00   -9.4890705123E+00   -9.4545644702E+00
   -9.4203085500E+00   -9.3863000471E+00   -9.3525360884E+00   -9.3190141814E+00
   -9.2857317993E+00   -9.2526862650E+00   -9.2198750295E+00   -9.1872957550E+00
   -9.1549459653E+00   -9.1228230409E+00   -9.0909248238E+00   -9.0592489698E+00
   -9.0277929964E+00   -8.9965547006E+00   -8.9655319170E+00   -8.9347223640E+00
   -8.9041237219E+00   -8.8737340135E+00   -8.8435511079E+00   -8.8135727307E+00
   -8.7837969129E+00   -8.7542216764E+00   -8.7248449495E+00   -8.6956646090E+00
   -8.6666788680E+00   -8.6378857898E+00   -8.6092833186E+00   -8.5808696210E+00
   -8.5526429214E+00   -8.5246013707E+00   -8.4967429520E+00   -8.4690660775E+00
   -8.4415689866E+00   -8.4142498538E+00   -8.3871068955E+00   -8.3601385490E+00
   -8.3333431357E+00   -8.3067188629E+00   -8.2802641532E+00   -8.2539774690E+00
   -8.2278572101E+00   -8.2019016252E+00   -8.1761093137E+00   -8.1504787671E+00
   -8.1250084408E+00   -8.0996966895E+00   -8.0745422035E+00   -8.0495435281E+00
   -8.0246991633E+00   -8.0000075988E+00   -7.9754675658E+00   -7.9510776775E+00
   -7.9268364842E+00   -7.9027425873E+00   -7.8787947628E+00   -7.8549916886E+00
   -7.8313319703E+00   -7.8078142987E+00   -7.7844374992E+00   -7.7612003109E+00
   -7.7381013996E+00   -7.7151395246E+00   -7.6923135647E+00   -7.6696223178E+00
   -7.6470645140E+00   -7.6246389611E+00   -7.6023445957E+00   -7.5801802720E+00
   -7.5581447884E+00   -7.5362369824E+00   -7.5144558529E+00   -7.4928003072E+00
   -7.4712692162E+00   -7.4498614304E+00   -7.4285760137E+00   -7.4074119244E+00
   -7.3863681098E+00   -7.3654434176E+00   -7.3446369795E+00   -7.3239478024E+00
   -7.3033748931E+00   -7.2829171442E+00   -7.2625736957E+00   -7.2423436208E+00
   -7.2222259727E+00   -7.2022197270E+00   -7.1823239831E+00   -7.1625378946E+00
   -7.1428605587E+00   -7.1232910390E+00   -7.1038283809E+00   -7.0844718196E+00
   -7.0652204943E+00   -7.0460735444E+00   -7.0270299996E+00   -7.0080891279E+00
   -6.9892501244E+00   -6.9705121684E+00   -6.9518743831E+00   -6.9333359525E+00
   -6.9148961626E+00   -6.8965542311E+00   -6.8783093757E+00   -6.8601606999E+00
   -6.8421075662E+00   -6.8241492327E+00   -6.8062849537E+00   -6.7885139316E+00
   -6.7708354191E+00   -6.7532487726E+00   -6.7357532809E+00   -6.7183482329E+00
   -6.7010328218E+00   -6.6838064405E+00   -6.6666684301E+00   -6.6496181125E+00
   -6.6326547874E+00   -6.6157777151E+00   -6.5989863388E+00   -6.5822800122E+00
   -6.5656580889E+00   -6.5491198678E+00   -6.5326647152E+00   -6.5162920711E+00
   -6.5000013194E+00   -6.4837918437E+00   -6.4676629489E+00   -6.4516140892E+00
   -6.4356447061E+00   -6.4197542118E+00   -6.4039420190E+00   -6.3882074449E+00
   -6.3725500132E+00   -6.3569691722E+00   -6.3414643618E+00   -6.3260350171E+00
   -6.3106804876E+00   -6.2954003350E+00   -6.2801940253E+00   -6.2650610243E+00
   -6.2500007863E+00   -6.2350127040E+00   -6.2200963555E+00   -6.2052512317E+00
   -6.1904768232E+00   -6.1757726087E+00   -6.1611380092E+00   -6.1465726238E+00
   -6.1320759670E+00   -6.1176475534E+00   -6.1032868903E+00   -6.0889934137E+00
   -6.0747667477E+00   -6.0606064294E+00   -6.0465119961E+00   -6.0324829849E+00
   -6.0185188444E+00   -6.0046192171E+00   -5.9907836653E+00   -5.9770117476E+00
   -5.9633030229E+00   -5.9496569780E+00   -5.9360732398E+00   -5.9225514070E+00
   -5.9090910590E+00   -5.8956917751E+00   -5.8823530846E+00   -5.8690745872E+00
   -5.8558559218E+00   -5.8426966873E+00   -5.8295964825E+00   -5.8165548835E+00
   -5.8035714523E+00   -5.7906458705E+00   -5.7777777558E+00   -5.7649667258E+00
   -5.7522123981E+00   -5.7395143147E+00   -5.7268721754E+00   -5.7142856246E+00
   -5.7017542976E+00   -5.6892778297E+00   -5.6768558169E+00   -5.6644878977E+00
   -5.6521737685E+00   -5.6399130818E+00   -5.6277054898E+00   -5.6155506450E+00
   -5.6034481213E+00   -5.5913976636E+00   -5.5793989420E+00   -5.5674516251E+00
   -5.5555553813E+00   -5.5437098454E+00   -5.5319146804E+00   -5.5201696161E+00
   -5.5084743364E+00   -5.4968285254E+00   -5.4852318672E+00   -5.4736839838E+00
   -5.4621846172E+00   -5.4507334816E+00   -5.4393302757E+00   -5.4279746984E+00
   -5.4166664396E+00   -5.4054051418E+00   -5.3941905840E+00   -5.3830224789E+00
   -5.3719005395E+00   -5.3608244784E+00   -5.3497939820E+00   -5.3388087463E+00
   -5.3278685450E+00   -5.3169731045E+00   -5.3061221508E+00   -5.2953154100E+00
   -5.2845525703E+00   -5.2738333679E+00   -5.2631575761E+00   -5.2525249340E+00
   -5.2419351803E+00   -5.2313880541E+00   -5.2208832499E+00   -5.2104205318E+00
   -5.1999996775E+00   -5.1896204380E+00   -5.1792825644E+00   -5.1689858077E+00
   -5.1587298737E+00   -5.1485145426E+00   -5.1383396006E+00   -5.1282048106E+00
   -5.1181099352E+00   -5.1080547370E+00   -5.0980389370E+00   -5.0880623205E+00
   -5.0781246869E+00   -5.0682258101E+00   -5.0583654637E+00   -5.0485434215E+00
   -5.0387594237E+00   -5.0290132503E+00   -5.0193047178E+00   -5.0096336107E+00
   -4.9999997133E+00   -4.9904028097E+00   -4.9808426636E+00   -4.9713190394E+00
   -4.9618317750E+00   -4.9523806648E+00   -4.9429655031E+00   -4.9335860841E+00
   -4.9242421984E+00   -4.9149335865E+00   -4.9056601104E+00   -4.8964215738E+00
   -4.8872177809E+00   -4.8780485355E+00   -4.8689136414E+00   -4.8598128584E+00
   -4.8507460241E+00   -4.8417129684E+00   -4.8327135046E+00   -4.8237474455E+00
   -4.8148146044E+00   -4.8059147752E+00   -4.7970477516E+00   -4.7882133963E+00
   -4.7794115310E+00   -4.7706419775E+00   -4.7619045575E+00   -4.7531990929E+00
   -4.7445253574E+00   -4.7358832171E+00   -4.7272725125E+00   -4.7186930734E+00
   -4.7101447301E+00   -4.7016273126E+00   -4.6931406359E+00   -4.6846845051E+00
   -4.6762588000E+00   -4.6678633586E+00   -4.6594980190E+00   -4.6511626192E+00
   -4.6428569970E+00   -4.6345809562E+00   -4.6263343521E+00   -4.6181170516E+00
   -4.6099289003E+00   -4.6017697438E+00   -4.5936394276E+00   -4.5855377972E+00
   -4.5774646501E+00   -4.5694198801E+00   -4.5614033459E+00   -4.5534149004E+00
   -4.5454543961E+00   -4.5375216859E+00   -4.5296166180E+00   -4.5217390019E+00
   -4.5138887453E+00   -4.5060657079E+00   -4.4982697491E+00   -4.4905007287E+00
   -4.4827585062E+00   -4.4750429308E+00   -4.4673538323E+00   -4.4596911182E+00
   -4.4520546546E+00   -4.4444443076E+00   -4.4368599434E+00   -4.4293014281E+00
   -4.4217686162E+00   -4.4142613479E+00   -4.4067795343E+00   -4.3993230480E+00
   -4.3918917612E+00   -4.3844855464E+00   -4.3771042760E+00   -4.3697478135E+00
   -4.3624160004E+00   -4.3551087556E+00   -4.3478259573E+00   -4.3405674841E+00
   -4.3333332140E+00   -4.3261230255E+00
  </PP_LOCAL>
 <PP_NONLOCAL>
   <PP_BETA.1
       type="real"
       size=" 602"
       columns="4"
       index="1"
       angular_momentum="0"
       cutoff_radius_index=" 170"
       cutoff_radius="    1.6900000000E+00" >
    0.0000000000E+00   -5.0386080059E-02   -1.0076397903E-01   -1.5112489271E-01
   -2.0145877763E-01   -2.5175374883E-01   -3.0199549822E-01   -3.5216674032E-01
   -4.0224669143E-01   -4.5221058852E-01   -5.0202925333E-01   -5.5166870686E-01
   -6.0108983915E-01   -6.5024813841E-01   -6.9909348323E-01   -7.4757000096E-01
   -7.9561599456E-01   -8.4316393994E-01   -8.9014055458E-01   -9.3646693814E-01
   -9.8205878467E-01   -1.0268266654E+00   -1.0706763807E+00   -1.1135093784E+00
   -1.1552232366E+00   -1.1957122052E+00   -1.2348678058E+00   -1.2725794801E+00
   -1.3087352858E+00   -1.3432226325E+00   -1.3759290518E+00   -1.4067429955E+00
   -1.4355546530E+00   -1.4622567758E+00   -1.4867455363E+00   -1.5089213338E+00
   -1.5286896574E+00   -1.5459618643E+00   -1.5606559933E+00   -1.5726975182E+00
   -1.5820200608E+00   -1.5885660727E+00   -1.5922874615E+00   -1.5931461605E+00
   -1.5911146366E+00   -1.5861763306E+00   -1.5783260266E+00   -1.5675701452E+00
   -1.5539269564E+00   -1.5374266956E+00   -1.5181116757E+00   -1.4960361922E+00
   -1.4712664001E+00   -1.4438801799E+00   -1.4139667840E+00   -1.3816264934E+00
   -1.3469701865E+00   -1.3101187904E+00   -1.2712027008E+00   -1.2303611264E+00
   -1.1877413367E+00   -1.1434978962E+00   -1.0977918714E+00   -1.0507898174E+00
   -1.0026630265E+00   -9.5358651448E-01   -9.0373792014E-01   -8.5329669083E-01
   -8.0244313027E-01   -7.5135711061E-01   -7.0021727808E-01   -6.4920007976E-01
   -5.9847877543E-01   -5.4822262723E-01   -4.9859563686E-01   -4.4975601039E-01
   -4.0185529175E-01   -3.5503759090E-01   -3.0943888854E-01   -2.6518640442E-01
   -2.2239803353E-01   -1.8118185339E-01   -1.4163570519E-01   -1.0384685100E-01
   -6.7891708120E-02   -3.3835661700E-02   -1.7329553390E-03    2.8373340634E-02
    5.6451284473E-02    8.2479943662E-02    1.0644920326E-01    1.2835950489E-01