<UPF version="2.0.1">
  <PP_INFO>

 This pseudopotential file has been produced using the code
 ONCVPSP  (Optimized Norm-Conservinng Vanderbilt PSeudopotential)
 scalar-relativistic version 2.1.1, 03/26/2014 by D. R. Hamann
 The code is available through a link at URL www.mat-simresearch.com.
 Documentation with the package provides a full discription of the
 input data below.


 While it is not required under the terms of the GNU GPL, it is
 suggested that you cite D. R. Hamann, Phys. Rev. B 88, 085117 (2013)
 in any publication using these pseudopotentials.


 Copyright 2015 The Regents of the University of California
 
 This work is licensed under the Creative Commons Attribution-ShareAlike 
 4.0 International License. To view a copy of this license, visit 
 http://creativecommons.org/licenses/by-sa/4.0/ or send a letter to 
 Creative Commons, PO Box 1866, Mountain View, CA 94042, USA.
 
 This pseudopotential is part of the Schlipf-Gygi norm-conserving 
 pseudopotential library. Its construction parameters were tuned to 
 reproduce materials of a training set with very high accuracy and 
 should be suitable as a general purpose pseudopotential to treat a 
 variety of different compounds. For details of the construction and 
 testing of the pseudopotential please refer to:
 
 [insert reference to paper here]
 
 We kindly ask that you include this reference in all publications 
 associated to this pseudopotential.


    <PP_INPUTFILE>
# ATOM AND REFERENCE CONFIGURATION
# atsym  z    nc    nv    iexc   psfile
  Ne 10.00     1     2     4      upf
#
#   n    l    f        energy (Ha)
    1    0    2.00
    2    0    2.00
    2    1    6.00
#
# PSEUDOPOTENTIAL AND OPTIMIZATION
# lmax
    1
#
#   l,   rc,     ep,   ncon, nbas, qcut
    0   2.62070  -1.33786    5    8   7.96858
    1   2.65215  -0.49002    5    8   6.60628
#
# LOCAL POTENTIAL
# lloc, lpopt,  rc(5),   dvloc0
    4    5   2.62070      0.00000
#
# VANDERBILT-KLEINMAN-BYLANDER PROJECTORs
# l, nproj, debl
    0    2   1.54861
    1    2   1.11000
#
# MODEL CORE CHARGE
# icmod, fcfact
    0   0.00000
#
# LOG DERIVATIVE ANALYSIS
# epsh1, epsh2, depsh
   -5.00    3.00    0.02
#
# OUTPUT GRID
# rlmax, drl
    6.00    0.01
#
# TEST CONFIGURATIONS
# ncnf
    0
# nvcnf
#   n    l    f
    </PP_INPUTFILE>
  </PP_INFO>
  <!--                               -->
  <!-- END OF HUMAN READABLE SECTION -->
  <!--                               -->
    <PP_HEADER
       generated="Generated using ONCVPSP code by D. R. Hamann"
       author="Martin Schlipf and Francois Gygi"
       date="150105"
       comment=""
       element="Ne"
       pseudo_type="NC"
       relativistic="scalar"
       is_ultrasoft="F"
       is_paw="F"
       is_coulomb="F"
       has_so="F"
       has_wfc="F"
       has_gipaw="F"
       core_correction="F"
       functional="PBE"
       z_valence="    8.00"
       total_psenergy="  -3.06800512691E+01"
       rho_cutoff="   6.01000000000E+00"
       l_max="1"
       l_local="-1"
       mesh_size="   602"
       number_of_wfc="0"
       number_of_proj="4"/>
 <PP_MESH>
   <PP_R type="real"  size=" 602" columns="8">
    0.0000    0.0100    0.0200    0.0300    0.0400    0.0500    0.0600    0.0700
    0.0800    0.0900    0.1000    0.1100    0.1200    0.1300    0.1400    0.1500
    0.1600    0.1700    0.1800    0.1900    0.2000    0.2100    0.2200    0.2300
    0.2400    0.2500    0.2600    0.2700    0.2800    0.2900    0.3000    0.3100
    0.3200    0.3300    0.3400    0.3500    0.3600    0.3700    0.3800    0.3900
    0.4000    0.4100    0.4200    0.4300    0.4400    0.4500    0.4600    0.4700
    0.4800    0.4900    0.5000    0.5100    0.5200    0.5300    0.5400    0.5500
    0.5600    0.5700    0.5800    0.5900    0.6000    0.6100    0.6200    0.6300
    0.6400    0.6500    0.6600    0.6700    0.6800    0.6900    0.7000    0.7100
    0.7200    0.7300    0.7400    0.7500    0.7600    0.7700    0.7800    0.7900
    0.8000    0.8100    0.8200    0.8300    0.8400    0.8500    0.8600    0.8700
    0.8800    0.8900    0.9000    0.9100    0.9200    0.9300    0.9400    0.9500
    0.9600    0.9700    0.9800    0.9900    1.0000    1.0100    1.0200    1.0300
    1.0400    1.0500    1.0600    1.0700    1.0800    1.0900    1.1000    1.1100
    1.1200    1.1300    1.1400    1.1500    1.1600    1.1700    1.1800    1.1900
    1.2000    1.2100    1.2200    1.2300    1.2400    1.2500    1.2600    1.2700
    1.2800    1.2900    1.3000    1.3100    1.3200    1.3300    1.3400    1.3500
    1.3600    1.3700    1.3800    1.3900    1.4000    1.4100    1.4200    1.4300
    1.4400    1.4500    1.4600    1.4700    1.4800    1.4900    1.5000    1.5100
    1.5200    1.5300    1.5400    1.5500    1.5600    1.5700    1.5800    1.5900
    1.6000    1.6100    1.6200    1.6300    1.6400    1.6500    1.6600    1.6700
    1.6800    1.6900    1.7000    1.7100    1.7200    1.7300    1.7400    1.7500
    1.7600    1.7700    1.7800    1.7900    1.8000    1.8100    1.8200    1.8300
    1.8400    1.8500    1.8600    1.8700    1.8800    1.8900    1.9000    1.9100
    1.9200    1.9300    1.9400    1.9500    1.9600    1.9700    1.9800    1.9900
    2.0000    2.0100    2.0200    2.0300    2.0400    2.0500    2.0600    2.0700
    2.0800    2.0900    2.1000    2.1100    2.1200    2.1300    2.1400    2.1500
    2.1600    2.1700    2.1800    2.1900    2.2000    2.2100    2.2200    2.2300
    2.2400    2.2500    2.2600    2.2700    2.2800    2.2900    2.3000    2.3100
    2.3200    2.3300    2.3400    2.3500    2.3600    2.3700    2.3800    2.3900
    2.4000    2.4100    2.4200    2.4300    2.4400    2.4500    2.4600    2.4700
    2.4800    2.4900    2.5000    2.5100    2.5200    2.5300    2.5400    2.5500
    2.5600    2.5700    2.5800    2.5900    2.6000    2.6100    2.6200    2.6300
    2.6400    2.6500    2.6600    2.6700    2.6800    2.6900    2.7000    2.7100
    2.7200    2.7300    2.7400    2.7500    2.7600    2.7700    2.7800    2.7900
    2.8000    2.8100    2.8200    2.8300    2.8400    2.8500    2.8600    2.8700
    2.8800    2.8900    2.9000    2.9100    2.9200    2.9300    2.9400    2.9500
    2.9600    2.9700    2.9800    2.9900    3.0000    3.0100    3.0200    3.0300
    3.0400    3.0500    3.0600    3.0700    3.0800    3.0900    3.1000    3.1100
    3.1200    3.1300    3.1400    3.1500    3.1600    3.1700    3.1800    3.1900
    3.2000    3.2100    3.2200    3.2300    3.2400    3.2500    3.2600    3.2700
    3.2800    3.2900    3.3000    3.3100    3.3200    3.3300    3.3400    3.3500
    3.3600    3.3700    3.3800    3.3900    3.4000    3.4100    3.4200    3.4300
    3.4400    3.4500    3.4600    3.4700    3.4800    3.4900    3.5000    3.5100
    3.5200    3.5300    3.5400    3.5500    3.5600    3.5700    3.5800    3.5900
    3.6000    3.6100    3.6200    3.6300    3.6400    3.6500    3.6600    3.6700
    3.6800    3.6900    3.7000    3.7100    3.7200    3.7300    3.7400    3.7500
    3.7600    3.7700    3.7800    3.7900    3.8000    3.8100    3.8200    3.8300
    3.8400    3.8500    3.8600    3.8700    3.8800    3.8900    3.9000    3.9100
    3.9200    3.9300    3.9400    3.9500    3.9600    3.9700    3.9800    3.9900
    4.0000    4.0100    4.0200    4.0300    4.0400    4.0500    4.0600    4.0700
    4.0800    4.0900    4.1000    4.1100    4.1200    4.1300    4.1400    4.1500
    4.1600    4.1700    4.1800    4.1900    4.2000    4.2100    4.2200    4.2300
    4.2400    4.2500    4.2600    4.2700    4.2800    4.2900    4.3000    4.3100
    4.3200    4.3300    4.3400    4.3500    4.3600    4.3700    4.3800    4.3900
    4.4000    4.4100    4.4200    4.4300    4.4400    4.4500    4.4600    4.4700
    4.4800    4.4900    4.5000    4.5100    4.5200    4.5300    4.5400    4.5500
    4.5600    4.5700    4.5800    4.5900    4.6000    4.6100    4.6200    4.6300
    4.6400    4.6500    4.6600    4.6700    4.6800    4.6900    4.7000    4.7100
    4.7200    4.7300    4.7400    4.7500    4.7600    4.7700    4.7800    4.7900
    4.8000    4.8100    4.8200    4.8300    4.8400    4.8500    4.8600    4.8700
    4.8800    4.8900    4.9000    4.9100    4.9200    4.9300    4.9400    4.9500
    4.9600    4.9700    4.9800    4.9900    5.0000    5.0100    5.0200    5.0300
    5.0400    5.0500    5.0600    5.0700    5.0800    5.0900    5.1000    5.1100
    5.1200    5.1300    5.1400    5.1500    5.1600    5.1700    5.1800    5.1900
    5.2000    5.2100    5.2200    5.2300    5.2400    5.2500    5.2600    5.2700
    5.2800    5.2900    5.3000    5.3100    5.3200    5.3300    5.3400    5.3500
    5.3600    5.3700    5.3800    5.3900    5.4000    5.4100    5.4200    5.4300
    5.4400    5.4500    5.4600    5.4700    5.4800    5.4900    5.5000    5.5100
    5.5200    5.5300    5.5400    5.5500    5.5600    5.5700    5.5800    5.5900
    5.6000    5.6100    5.6200    5.6300    5.6400    5.6500    5.6600    5.6700
    5.6800    5.6900    5.7000    5.7100    5.7200    5.7300    5.7400    5.7500
    5.7600    5.7700    5.7800    5.7900    5.8000    5.8100    5.8200    5.8300
    5.8400    5.8500    5.8600    5.8700    5.8800    5.8900    5.9000    5.9100
    5.9200    5.9300    5.9400    5.9500    5.9600    5.9700    5.9800    5.9900
    6.0000    6.0100
   </PP_R>
   <PP_RAB type="real"  size=" 602" columns="8">
    0.0100    0.0100    0.0100    0.0100    0.0100    0.0100    0.0100    0.0100
    0.0100    0.0100    0.0100    0.0100    0.0100    0.0100    0.0100    0.0100
    0.0100    0.0100    0.0100    0.0100    0.0100    0.0100    0.0100    0.0100
    0.0100    0.0100    0.0100    0.0100    0.0100    0.0100    0.0100    0.0100
    0.0100    0.0100    0.0100    0.0100    0.0100    0.0100    0.0100    0.0100
    0.0100    0.0100    0.0100    0.0100    0.0100    0.0100    0.0100    0.0100
    0.0100    0.0100    0.0100    0.0100    0.0100    0.0100    0.0100    0.0100
    0.0100    0.0100    0.0100    0.0100    0.0100    0.0100    0.0100    0.0100
    0.0100    0.0100    0.0100    0.0100    0.0100    0.0100    0.0100    0.0100
    0.0100    0.0100    0.0100    0.0100    0.0100    0.0100    0.0100    0.0100
    0.0100    0.0100    0.0100    0.0100    0.0100    0.0100    0.0100    0.0100
    0.0100    0.0100    0.0100    0.0100    0.0100    0.0100    0.0100    0.0100
    0.0100    0.0100    0.0100    0.0100    0.0100    0.0100    0.0100    0.0100
    0.0100    0.0100    0.0100    0.0100    0.0100    0.0100    0.0100    0.0100
    0.0100    0.0100    0.0100    0.0100    0.0100    0.0100    0.0100    0.0100
    0.0100    0.0100    0.0100    0.0100    0.0100    0.0100    0.0100    0.0100
    0.0100    0.0100    0.0100    0.0100    0.0100    0.0100    0.0100    0.0100
    0.0100    0.0100    0.0100    0.0100    0.0100    0.0100    0.0100    0.0100
    0.0100    0.0100    0.0100    0.0100    0.0100    0.0100    0.0100    0.0100
    0.0100    0.0100    0.0100    0.0100    0.0100    0.0100    0.0100    0.0100
    0.0100    0.0100    0.0100    0.0100    0.0100    0.0100    0.0100    0.0100
    0.0100    0.0100    0.0100    0.0100    0.0100    0.0100    0.0100    0.0100
    0.0100    0.0100    0.0100    0.0100    0.0100    0.0100    0.0100    0.0100
    0.0100    0.0100    0.0100    0.0100    0.0100    0.0100    0.0100    0.0100
    0.0100    0.0100    0.0100    0.0100    0.0100    0.0100    0.0100    0.0100
    0.0100    0.0100    0.0100    0.0100    0.0100    0.0100    0.0100    0.0100
    0.0100    0.0100    0.0100    0.0100    0.0100    0.0100    0.0100    0.0100
    0.0100    0.0100    0.0100    0.0100    0.0100    0.0100    0.0100    0.0100
    0.0100    0.0100    0.0100    0.0100    0.0100    0.0100    0.0100    0.0100
    0.0100    0.0100    0.0100    0.0100    0.0100    0.0100    0.0100    0.0100
    0.0100    0.0100    0.0100    0.0100    0.0100    0.0100    0.0100    0.0100
    0.0100    0.0100    0.0100    0.0100    0.0100    0.0100    0.0100    0.0100
    0.0100    0.0100    0.0100    0.0100    0.0100    0.0100    0.0100    0.0100
    0.0100    0.0100    0.0100    0.0100    0.0100    0.0100    0.0100    0.0100
    0.0100    0.0100    0.0100    0.0100    0.0100    0.0100    0.0100    0.0100
    0.0100    0.0100    0.0100    0.0100    0.0100    0.0100    0.0100    0.0100
    0.0100    0.0100    0.0100    0.0100    0.0100    0.0100    0.0100    0.0100
    0.0100    0.0100    0.0100    0.0100    0.0100    0.0100    0.0100    0.0100
    0.0100    0.0100    0.0100    0.0100    0.0100    0.0100    0.0100    0.0100
    0.0100    0.0100    0.0100    0.0100    0.0100    0.0100    0.0100    0.0100
    0.0100    0.0100    0.0100    0.0100    0.0100    0.0100    0.0100    0.0100
    0.0100    0.0100    0.0100    0.0100    0.0100    0.0100    0.0100    0.0100
    0.0100    0.0100    0.0100    0.0100    0.0100    0.0100    0.0100    0.0100
    0.0100    0.0100    0.0100    0.0100    0.0100    0.0100    0.0100    0.0100
    0.0100    0.0100    0.0100    0.0100    0.0100    0.0100    0.0100    0.0100
    0.0100    0.0100    0.0100    0.0100    0.0100    0.0100    0.0100    0.0100
    0.0100    0.0100    0.0100    0.0100    0.0100    0.0100    0.0100    0.0100
    0.0100    0.0100    0.0100    0.0100    0.0100    0.0100    0.0100    0.0100
    0.0100    0.0100    0.0100    0.0100    0.0100    0.0100    0.0100    0.0100
    0.0100    0.0100    0.0100    0.0100    0.0100    0.0100    0.0100    0.0100
    0.0100    0.0100    0.0100    0.0100    0.0100    0.0100    0.0100    0.0100
    0.0100    0.0100    0.0100    0.0100    0.0100    0.0100    0.0100    0.0100
    0.0100    0.0100    0.0100    0.0100    0.0100    0.0100    0.0100    0.0100
    0.0100    0.0100    0.0100    0.0100    0.0100    0.0100    0.0100    0.0100
    0.0100    0.0100    0.0100    0.0100    0.0100    0.0100    0.0100    0.0100
    0.0100    0.0100    0.0100    0.0100    0.0100    0.0100    0.0100    0.0100
    0.0100    0.0100    0.0100    0.0100    0.0100    0.0100    0.0100    0.0100
    0.0100    0.0100    0.0100    0.0100    0.0100    0.0100    0.0100    0.0100
    0.0100    0.0100    0.0100    0.0100    0.0100    0.0100    0.0100    0.0100
    0.0100    0.0100    0.0100    0.0100    0.0100    0.0100    0.0100    0.0100
    0.0100    0.0100    0.0100    0.0100    0.0100    0.0100    0.0100    0.0100
    0.0100    0.0100    0.0100    0.0100    0.0100    0.0100    0.0100    0.0100
    0.0100    0.0100    0.0100    0.0100    0.0100    0.0100    0.0100    0.0100
    0.0100    0.0100    0.0100    0.0100    0.0100    0.0100    0.0100    0.0100
    0.0100    0.0100    0.0100    0.0100    0.0100    0.0100    0.0100    0.0100
    0.0100    0.0100    0.0100    0.0100    0.0100    0.0100    0.0100    0.0100
    0.0100    0.0100    0.0100    0.0100    0.0100    0.0100    0.0100    0.0100
    0.0100    0.0100    0.0100    0.0100    0.0100    0.0100    0.0100    0.0100
    0.0100    0.0100    0.0100    0.0100    0.0100    0.0100    0.0100    0.0100
    0.0100    0.0100    0.0100    0.0100    0.0100    0.0100    0.0100    0.0100
    0.0100    0.0100    0.0100    0.0100    0.0100    0.0100    0.0100    0.0100
    0.0100    0.0100    0.0100    0.0100    0.0100    0.0100    0.0100    0.0100
    0.0100    0.0100    0.0100    0.0100    0.0100    0.0100    0.0100    0.0100
    0.0100    0.0100    0.0100    0.0100    0.0100    0.0100    0.0100    0.0100
    0.0100    0.0100    0.0100    0.0100    0.0100    0.0100    0.0100    0.0100
    0.0100    0.0100
   </PP_RAB>
 </PP_MESH>
  <PP_LOCAL type="real"  size=" 602" columns="4">
   -1.7610787288E+01   -1.7611467123E+01   -1.7613933148E+01   -1.7617640454E+01
   -1.7622044127E+01   -1.7626486185E+01   -1.7630273318E+01   -1.7632747636E+01
   -1.7633340816E+01   -1.7631607349E+01   -1.7627237424E+01   -1.7620053241E+01
   -1.7609993990E+01   -1.7597094689E+01   -1.7581463149E+01   -1.7563258018E+01
   -1.7542669667E+01   -1.7519904645E+01   -1.7495173778E+01   -1.7468683573E+01
   -1.7440630386E+01   -1.7411196771E+01   -1.7380549484E+01   -1.7348838642E+01
   -1.7316197701E+01   -1.7282743899E+01   -1.7248579067E+01   -1.7213790513E+01
   -1.7178452021E+01   -1.7142624813E+01   -1.7106358469E+01   -1.7069691799E+01
   -1.7032653648E+01   -1.6995263615E+01   -1.6957532765E+01   -1.6919464267E+01
   -1.6881054007E+01   -1.6842291183E+01   -1.6803158913E+01   -1.6763634811E+01
   -1.6723691593E+01   -1.6683297715E+01   -1.6642418008E+01   -1.6601014350E+01
   -1.6559046364E+01   -1.6516472132E+01   -1.6473248929E+01   -1.6429333961E+01
   -1.6384685101E+01   -1.6339261627E+01   -1.6293024915E+01   -1.6245939082E+01
   -1.6197971626E+01   -1.6149093977E+01   -1.6099281861E+01   -1.6048515879E+01
   -1.5996781560E+01   -1.5944069777E+01   -1.5890376617E+01   -1.5835703627E+01
   -1.5780057402E+01   -1.5723449774E+01   -1.5665897222E+01   -1.5607420720E+01
   -1.5548045383E+01   -1.5487799921E+01   -1.5426716299E+01   -1.5364829300E+01
   -1.5302175989E+01   -1.5238795292E+01   -1.5174727602E+01   -1.5110014347E+01
   -1.5044697607E+01   -1.4978819782E+01   -1.4912423289E+01   -1.4845550307E+01
   -1.4778242530E+01   -1.4710540987E+01   -1.4642485889E+01   -1.4574116504E+01
   -1.4505471064E+01   -1.4436586698E+01   -1.4367499385E+01   -1.4298243933E+01
   -1.4228853964E+01   -1.4159361921E+01   -1.4089799084E+01   -1.4020195584E+01
   -1.3950580440E+01   -1.3880981579E+01   -1.3811425876E+01   -1.3741939186E+01
   -1.3672546371E+01   -1.3603271336E+01   -1.3534137053E+01   -1.3465165607E+01
   -1.3396378179E+01   -1.3327795078E+01   -1.3259435774E+01   -1.3191318898E+01
   -1.3123462256E+01   -1.3055882828E+01   -1.2988596808E+01   -1.2921619527E+01
   -1.2854965470E+01   -1.2788648311E+01   -1.2722680881E+01   -1.2657075201E+01
   -1.2591842401E+01   -1.2526992661E+01   -1.2462535308E+01   -1.2398478774E+01
   -1.2334830662E+01   -1.2271597399E+01   -1.2208784547E+01   -1.2146396733E+01
   -1.2084437673E+01   -1.2022909806E+01   -1.1961814688E+01   -1.1901152997E+01
   -1.1840924189E+01   -1.1781126635E+01   -1.1721757863E+01   -1.1662814401E+01
   -1.1604291491E+01   -1.1546183644E+01   -1.1488484544E+01   -1.1431186574E+01
   -1.1374281569E+01   -1.1317760634E+01   -1.1261613806E+01   -1.1205830783E+01
   -1.1150400614E+01   -1.1095311737E+01   -1.1040552425E+01   -1.0986110503E+01
   -1.0931973728E+01   -1.0878129747E+01   -1.0824566325E+01   -1.0771271392E+01
   -1.0718233062E+01   -1.0665440154E+01   -1.0612881466E+01   -1.0560547029E+01
   -1.0508427136E+01   -1.0456512924E+01   -1.0404796772E+01   -1.0353271078E+01
   -1.0301930453E+01   -1.0250769220E+01   -1.0199783782E+01   -1.0148970888E+01
   -1.0098328523E+01   -1.0047855913E+01   -9.9975526034E+00   -9.9474201108E+00
   -9.8974594938E+00   -9.8476741736E+00   -9.7980668453E+00   -9.7486422387E+00
   -9.6994046074E+00   -9.6503596268E+00   -9.6015127808E+00   -9.5528704533E+00
   -9.5044389743E+00   -9.4562251929E+00   -9.4082359229E+00   -9.3604782325E+00
   -9.3129591026E+00   -9.2656855773E+00   -9.2186645474E+00   -9.1719028007E+00
   -9.1254069443E+00   -9.0791832966E+00   -9.0332380486E+00   -8.9875768634E+00
   -8.9422054364E+00   -8.8971286236E+00   -8.8523515858E+00   -8.8078782617E+00
   -8.7637132648E+00   -8.7198595906E+00   -8.6763211889E+00   -8.6331002859E+00
   -8.5901999083E+00   -8.5476217729E+00   -8.5053678812E+00   -8.4634395302E+00
   -8.4218376920E+00   -8.3805633112E+00   -8.3396163752E+00   -8.2989975093E+00
   -8.2587059088E+00   -8.2187415803E+00   -8.1791033889E+00   -8.1397904948E+00
   -8.1008016514E+00   -8.0621352000E+00   -8.0237897912E+00   -7.9857631438E+00
   -7.9480535558E+00   -7.9106585335E+00   -7.8735757670E+00   -7.8368027884E+00
   -7.8003367097E+00   -7.7641750509E+00   -7.7283145898E+00   -7.6927524553E+00
   -7.6574855082E+00   -7.6225104420E+00   -7.5878241547E+00   -7.5534231049E+00
   -7.5193039657E+00   -7.4854632558E+00   -7.4518974045E+00   -7.4186029457E+00
   -7.3855762403E+00   -7.3528137047E+00   -7.3203117572E+00   -7.2880668186E+00
   -7.2560752425E+00   -7.2243335671E+00   -7.1928382563E+00   -7.1615857569E+00
   -7.1305728401E+00   -7.0997960016E+00   -7.0692520568E+00   -7.0389379977E+00
   -7.0088504099E+00   -6.9789866840E+00   -6.9493439732E+00   -6.9199192396E+00
   -6.8907103607E+00   -6.8617146784E+00   -6.8329297911E+00   -6.8043539090E+00
   -6.7759846604E+00   -6.7478203041E+00   -6.7198593516E+00   -6.6920997686E+00
   -6.6645403917E+00   -6.6371799968E+00   -6.6100169197E+00   -6.5830504070E+00
   -6.5562794465E+00   -6.5297027710E+00   -6.5033197961E+00   -6.4771296770E+00
   -6.4511314948E+00   -6.4253246249E+00   -6.3997083360E+00   -6.3742819104E+00
   -6.3490445653E+00   -6.3239955727E+00   -6.2991342900E+00   -6.2744596616E+00
   -6.2499708344E+00   -6.2256671541E+00   -6.2015471841E+00   -6.1776098097E+00
   -6.1538543092E+00   -6.1302787902E+00   -6.1068817993E+00   -6.0836622771E+00
   -6.0606181483E+00   -6.0377476435E+00   -6.0150491903E+00   -5.9925208311E+00
   -5.9701606476E+00   -5.9479667250E+00   -5.9259372332E+00   -5.9040703752E+00
   -5.8823642473E+00   -5.8608170218E+00   -5.8394271107E+00   -5.8181927897E+00
   -5.7971122748E+00   -5.7761840189E+00   -5.7554063789E+00   -5.7347776004E+00
   -5.7142961892E+00   -5.6939606046E+00   -5.6737692156E+00   -5.6537204881E+00
   -5.6338129981E+00   -5.6140452388E+00   -5.5944156279E+00   -5.5749228530E+00
   -5.5555654913E+00   -5.5363420329E+00   -5.5172511460E+00   -5.4982915143E+00
   -5.4794617518E+00   -5.4607604513E+00   -5.4421864126E+00   -5.4237383423E+00
   -5.4054148596E+00   -5.3872147677E+00   -5.3691368670E+00   -5.3511799017E+00
   -5.3333425772E+00   -5.3156238115E+00   -5.2980224287E+00   -5.2805371838E+00
   -5.2631669554E+00   -5.2459106695E+00   -5.2287672052E+00   -5.2117353365E+00
   -5.1948140939E+00   -5.1780024120E+00   -5.1612991886E+00   -5.1447033262E+00
   -5.1282138822E+00   -5.1118298377E+00   -5.0955501109E+00   -5.0793737270E+00
   -5.0632997602E+00   -5.0473272390E+00   -5.0314551073E+00   -5.0156824953E+00
   -5.0000084964E+00   -4.9844321826E+00   -4.9689525327E+00   -4.9535687602E+00
   -4.9382799822E+00   -4.9230852989E+00   -4.9079837680E+00   -4.8929746296E+00
   -4.8780570419E+00   -4.8632301364E+00   -4.8484930363E+00   -4.8338450102E+00
   -4.8192852554E+00   -4.8048129380E+00   -4.7904272332E+00   -4.7761274405E+00
   -4.7619127947E+00   -4.7477824992E+00   -4.7337357685E+00   -4.7197719357E+00
   -4.7058902710E+00   -4.6920900181E+00   -4.6783704190E+00   -4.6647308424E+00
   -4.6511705929E+00   -4.6376889565E+00   -4.6242851917E+00   -4.6109587053E+00
   -4.5977088343E+00   -4.5845349099E+00   -4.5714361965E+00   -4.5584121412E+00
   -4.5454621116E+00   -4.5325854755E+00   -4.5197815274E+00   -4.5070497225E+00
   -4.4943894689E+00   -4.4818001638E+00   -4.4692811512E+00   -4.4568318682E+00
   -4.4444517707E+00   -4.4321402839E+00   -4.4198968043E+00   -4.4077207420E+00
   -4.3956116019E+00   -4.3835688360E+00   -4.3715918957E+00   -4.3596801573E+00
   -4.3478331746E+00   -4.3360504251E+00   -4.3243313864E+00   -4.3126754880E+00
   -4.3010822401E+00   -4.2895511745E+00   -4.2780817933E+00   -4.2666735851E+00
   -4.2553260069E+00   -4.2440386456E+00   -4.2328110263E+00   -4.2216426741E+00
   -4.2105330643E+00   -4.1994817619E+00   -4.1884883387E+00   -4.1775523418E+00
   -4.1666733096E+00   -4.1558507382E+00   -4.1450842583E+00   -4.1343734381E+00
   -4.1237178461E+00   -4.1131170138E+00   -4.1025705219E+00   -4.0920779933E+00
   -4.0816390163E+00   -4.0712531796E+00   -4.0609200134E+00   -4.0506391700E+00
   -4.0404102674E+00   -4.0302329132E+00   -4.0201067057E+00   -4.0100312068E+00
   -4.0000060996E+00   -3.9900310100E+00   -3.9801055640E+00   -3.9702293634E+00
   -3.9604020221E+00   -3.9506232256E+00   -3.9408926171E+00   -3.9312098400E+00
   -3.9215745034E+00   -3.9119862629E+00   -3.9024448089E+00   -3.8929498014E+00
   -3.8835009005E+00   -3.8740977257E+00   -3.8647399642E+00   -3.8554273149E+00
   -3.8461594533E+00   -3.8369360555E+00   -3.8277567547E+00   -3.8186212602E+00
   -3.8095292821E+00   -3.8004805112E+00   -3.7914746385E+00   -3.7825113140E+00
   -3.7735902598E+00   -3.7647112005E+00   -3.7558738415E+00   -3.7470778879E+00
   -3.7383230090E+00   -3.7296089318E+00   -3.7209353979E+00   -3.7123021264E+00
   -3.7037088365E+00   -3.6951552189E+00   -3.6866409976E+00   -3.6781659341E+00
   -3.6697297606E+00   -3.6613322091E+00   -3.6529729950E+00   -3.6446518317E+00
   -3.6363685029E+00   -3.6281227530E+00   -3.6199143269E+00   -3.6117429665E+00
   -3.6036083683E+00   -3.5955103398E+00   -3.5874486375E+00   -3.5794230179E+00
   -3.5714332376E+00   -3.5634790143E+00   -3.5555601368E+00   -3.5476763874E+00
   -3.5398275341E+00   -3.5320133446E+00   -3.5242335685E+00   -3.5164879619E+00
   -3.5087763371E+00   -3.5010984728E+00   -3.4934541478E+00   -3.4858431406E+00
   -3.4782651845E+00   -3.4707201080E+00   -3.4632077048E+00   -3.4557277639E+00
   -3.4482800744E+00   -3.4408644053E+00   -3.4334805393E+00   -3.4261283051E+00
   -3.4188075016E+00   -3.4115179275E+00   -3.4042593817E+00   -3.3970316235E+00
   -3.3898344899E+00   -3.3826677980E+00   -3.3755313559E+00   -3.3684249718E+00
   -3.3613484453E+00   -3.3543015562E+00   -3.3472841600E+00   -3.3402960739E+00
   -3.3333371149E+00   -3.3264071004E+00   -3.3195058254E+00   -3.3126331082E+00
   -3.3057887991E+00   -3.2989727237E+00   -3.2921847077E+00   -3.2854245767E+00
   -3.2786921251E+00   -3.2719872012E+00   -3.2653096529E+00   -3.2586593139E+00
   -3.2520360180E+00   -3.2454395989E+00   -3.2388698535E+00   -3.2323266518E+00
   -3.2258098425E+00   -3.2193192670E+00   -3.2128547668E+00   -3.2064161834E+00
   -3.2000033190E+00   -3.1936160578E+00   -3.1872542521E+00   -3.1809177508E+00
   -3.1746064028E+00   -3.1683200569E+00   -3.1620585231E+00   -3.1558216930E+00
   -3.1496094252E+00   -3.1434215758E+00   -3.1372580006E+00   -3.1311185556E+00
   -3.1250030610E+00   -3.1189114090E+00   -3.1128434675E+00   -3.1067990991E+00
   -3.1007781665E+00   -3.0947805323E+00   -3.0888060294E+00   -3.0828545444E+00
   -3.0769259568E+00   -3.0710201357E+00   -3.0651369500E+00   -3.0592762689E+00
   -3.0534379404E+00   -3.0476218393E+00   -3.0418278592E+00   -3.0360558751E+00
   -3.0303057624E+00   -3.0245773960E+00   -3.0188706414E+00   -3.0131853564E+00
   -3.0075214505E+00   -3.0018788046E+00   -2.9962572997E+00   -2.9906568167E+00
   -2.9850772367E+00   -2.9795184072E+00   -2.9739802436E+00   -2.9684626362E+00
   -2.9629654716E+00   -2.9574886363E+00   -2.9520320168E+00   -2.9465954825E+00
   -2.9411789197E+00   -2.9357822399E+00   -2.9304053349E+00   -2.9250480964E+00
   -2.9197104164E+00   -2.9143921865E+00   -2.9090932649E+00   -2.9038135801E+00
   -2.8985530307E+00   -2.8933115134E+00   -2.8880889252E+00   -2.8828851628E+00
   -2.8777001103E+00   -2.8725336569E+00   -2.8673857264E+00   -2.8622562204E+00
   -2.8571450405E+00   -2.8520520884E+00   -2.8469772659E+00   -2.8419204506E+00
   -2.8368815609E+00   -2.8318605133E+00   -2.8268572140E+00   -2.8218715693E+00
   -2.8169034854E+00   -2.8119528685E+00   -2.8070195935E+00   -2.8021036005E+00
   -2.7972048016E+00   -2.7923231074E+00   -2.7874584286E+00   -2.7826106758E+00
   -2.7777797555E+00   -2.7729655545E+00   -2.7681680159E+00   -2.7633870544E+00
   -2.7586225848E+00   -2.7538745218E+00   -2.7491427803E+00   -2.7444272681E+00
   -2.7397278828E+00   -2.7350445680E+00   -2.7303772422E+00   -2.7257258245E+00
   -2.7210902333E+00   -2.7164703876E+00   -2.7118661992E+00   -2.7072775703E+00
   -2.7027044475E+00   -2.6981467534E+00   -2.6936044105E+00   -2.6890773412E+00
   -2.6845654682E+00   -2.6800687097E+00   -2.6755869671E+00   -2.6711201924E+00
   -2.6666683116E+00   -2.6622312509E+00
  </PP_LOCAL>
 <PP_NONLOCAL>
   <PP_BETA.1
       type="real"
       size=" 602"
       columns="4"
       index="1"
       angular_momentum="0"
       cutoff_radius_index=" 270"
       cutoff_radius="    2.6900000000E+00" >
    0.0000000000E+00   -3.3367349680E-02   -6.6711671260E-02   -1.0000994735E-01
   -1.3323918205E-01   -1.6637641173E-01   -1.9939871608E-01   -2.3228322918E-01
   -2.6500715085E-01   -2.9754775825E-01   -3.2988241772E-01   -3.6198859698E-01
   -3.9384387760E-01   -4.2542596797E-01   -4.5671271654E-01   -4.8768212561E-01
   -5.1831236545E-01   -5.4858178900E-01   -5.7846894698E-01   -6.0795260351E-01
   -6.3701175228E-01   -6.6562563315E-01   -6.9377374933E-01   -7.2143588501E-01
   -7.4859212348E-01   -7.7522286586E-01   -8.0130885004E-01   -8.2683117039E-01
   -8.5177129765E-01   -8.7611109928E-01   -8.9983286022E-01   -9.2291930400E-01
   -9.4535361388E-01   -9.6711945480E-01   -9.8820099485E-01   -1.0085829273E+00
   -1.0282504927E+00   -1.0471895011E+00   -1.0653863534E+00   -1.0828280641E+00
   -1.0995022829E+00   -1.1153973161E+00   -1.1305021481E+00   -1.1448064620E+00
   -1.1583006606E+00   -1.1709758861E+00   -1.1828240399E+00   -1.1938378006E+00
   -1.2040106426E+00   -1.2133368544E+00   -1.2218115533E+00   -1.2294307009E+00
   -1.2361911191E+00   -1.2420905032E+00   -1.2471274304E+00   -1.2513013784E+00
   -1.2546127262E+00   -1.2570627704E+00   -1.2586537248E+00   -1.2593887342E+00
   -1.2592718680E+00   -1.2583081344E+00   -1.2565034710E+00   -1.2538647491E+00
   -1.2503997718E+00   -1.2461172661E+00   -1.2410268793E+00   -1.2351391724E+00
   -1.2284656079E+00   -1.2210185396E+00   -1.2128112001E+00   -1.2038576856E+00
   -1.1941729386E+00   -1.1837727302E+00   -1.1726736394E+00   -1.1608930329E+00
   -1.1484490381E+00   -1.1353605203E+00   -1.1216470554E+00   -1.1073289009E+00
   -1.0924269665E+00   -1.0769627820E+00   -1.0609584647E+00   -1.0444366850E+00
   -1.0274206308E+00   -1.0099339707E+00   -9.9200081615E-01   -9.7364568249E-01
   -9.5489344899E-01   -9.3576931806E-01   -9.1629877377E-01   -8.9650753956E-01
   -8.7642153553E-01   -8.5606683521E-01   -8.3546962204E-01   -8.1465615598E-01
   -7.9365270874E-01   -7.7248552276E-01   -7.5118078038E-01   -7.2976455383E-01
   -7.0826276206E-01   -6.8670112817E-01   -6.6510516412E-01   -6.4350006826E-01