<UPF version="2.0.1">
  <PP_INFO>

 This pseudopotential file has been produced using the code
 ONCVPSP  (Optimized Norm-Conservinng Vanderbilt PSeudopotential)
 scalar-relativistic version 2.1.1, 03/26/2014 by D. R. Hamann
 The code is available through a link at URL www.mat-simresearch.com.
 Documentation with the package provides a full discription of the
 input data below.


 While it is not required under the terms of the GNU GPL, it is
 suggested that you cite D. R. Hamann, Phys. Rev. B 88, 085117 (2013)
 in any publication using these pseudopotentials.


 Copyright 2015 The Regents of the University of California
 
 This work is licensed under the Creative Commons Attribution-ShareAlike 
 4.0 International License. To view a copy of this license, visit 
 http://creativecommons.org/licenses/by-sa/4.0/ or send a letter to 
 Creative Commons, PO Box 1866, Mountain View, CA 94042, USA.
 
 This pseudopotential is part of the Schlipf-Gygi norm-conserving 
 pseudopotential library. Its construction parameters were tuned to 
 reproduce materials of a training set with very high accuracy and 
 should be suitable as a general purpose pseudopotential to treat a 
 variety of different compounds. For details of the construction and 
 testing of the pseudopotential please refer to:
 
 [insert reference to paper here]
 
 We kindly ask that you include this reference in all publications 
 associated to this pseudopotential.


    <PP_INPUTFILE>
# ATOM AND REFERENCE CONFIGURATION
# atsym  z    nc    nv    iexc   psfile
  P 15.00     3     2     4      upf
#
#   n    l    f        energy (Ha)
    1    0    2.00
    2    0    2.00
    2    1    6.00
    3    0    2.00
    3    1    3.00
#
# PSEUDOPOTENTIAL AND OPTIMIZATION
# lmax
    1
#
#   l,   rc,     ep,   ncon, nbas, qcut
    0   2.58990  -0.51336    5    8   6.93562
    1   1.72641  -0.20237    5    8   8.86236
#
# LOCAL POTENTIAL
# lloc, lpopt,  rc(5),   dvloc0
    4    5   1.09720      0.00000
#
# VANDERBILT-KLEINMAN-BYLANDER PROJECTORs
# l, nproj, debl
    0    2   1.22971
    1    2   2.53859
#
# MODEL CORE CHARGE
# icmod, fcfact
    0   0.00000
#
# LOG DERIVATIVE ANALYSIS
# epsh1, epsh2, depsh
   -5.00    3.00    0.02
#
# OUTPUT GRID
# rlmax, drl
    6.00    0.01
#
# TEST CONFIGURATIONS
# ncnf
    0
# nvcnf
#   n    l    f
    </PP_INPUTFILE>
  </PP_INFO>
  <!--                               -->
  <!-- END OF HUMAN READABLE SECTION -->
  <!--                               -->
    <PP_HEADER
       generated="Generated using ONCVPSP code by D. R. Hamann"
       author="Martin Schlipf and Francois Gygi"
       date="150415"
       comment=""
       element="P "
       pseudo_type="NC"
       relativistic="scalar"
       is_ultrasoft="F"
       is_paw="F"
       is_coulomb="F"
       has_so="F"
       has_wfc="F"
       has_gipaw="F"
       core_correction="F"
       functional="PBE"
       z_valence="    5.00"
       total_psenergy="  -6.39970335153E+00"
       rho_cutoff="   6.01000000000E+00"
       l_max="1"
       l_local="-1"
       mesh_size="   602"
       number_of_wfc="0"
       number_of_proj="4"/>
 <PP_MESH>
   <PP_R type="real"  size=" 602" columns="8">
    0.0000    0.0100    0.0200    0.0300    0.0400    0.0500    0.0600    0.0700
    0.0800    0.0900    0.1000    0.1100    0.1200    0.1300    0.1400    0.1500
    0.1600    0.1700    0.1800    0.1900    0.2000    0.2100    0.2200    0.2300
    0.2400    0.2500    0.2600    0.2700    0.2800    0.2900    0.3000    0.3100
    0.3200    0.3300    0.3400    0.3500    0.3600    0.3700    0.3800    0.3900
    0.4000    0.4100    0.4200    0.4300    0.4400    0.4500    0.4600    0.4700
    0.4800    0.4900    0.5000    0.5100    0.5200    0.5300    0.5400    0.5500
    0.5600    0.5700    0.5800    0.5900    0.6000    0.6100    0.6200    0.6300
    0.6400    0.6500    0.6600    0.6700    0.6800    0.6900    0.7000    0.7100
    0.7200    0.7300    0.7400    0.7500    0.7600    0.7700    0.7800    0.7900
    0.8000    0.8100    0.8200    0.8300    0.8400    0.8500    0.8600    0.8700
    0.8800    0.8900    0.9000    0.9100    0.9200    0.9300    0.9400    0.9500
    0.9600    0.9700    0.9800    0.9900    1.0000    1.0100    1.0200    1.0300
    1.0400    1.0500    1.0600    1.0700    1.0800    1.0900    1.1000    1.1100
    1.1200    1.1300    1.1400    1.1500    1.1600    1.1700    1.1800    1.1900
    1.2000    1.2100    1.2200    1.2300    1.2400    1.2500    1.2600    1.2700
    1.2800    1.2900    1.3000    1.3100    1.3200    1.3300    1.3400    1.3500
    1.3600    1.3700    1.3800    1.3900    1.4000    1.4100    1.4200    1.4300
    1.4400    1.4500    1.4600    1.4700    1.4800    1.4900    1.5000    1.5100
    1.5200    1.5300    1.5400    1.5500    1.5600    1.5700    1.5800    1.5900
    1.6000    1.6100    1.6200    1.6300    1.6400    1.6500    1.6600    1.6700
    1.6800    1.6900    1.7000    1.7100    1.7200    1.7300    1.7400    1.7500
    1.7600    1.7700    1.7800    1.7900    1.8000    1.8100    1.8200    1.8300
    1.8400    1.8500    1.8600    1.8700    1.8800    1.8900    1.9000    1.9100
    1.9200    1.9300    1.9400    1.9500    1.9600    1.9700    1.9800    1.9900
    2.0000    2.0100    2.0200    2.0300    2.0400    2.0500    2.0600    2.0700
    2.0800    2.0900    2.1000    2.1100    2.1200    2.1300    2.1400    2.1500
    2.1600    2.1700    2.1800    2.1900    2.2000    2.2100    2.2200    2.2300
    2.2400    2.2500    2.2600    2.2700    2.2800    2.2900    2.3000    2.3100
    2.3200    2.3300    2.3400    2.3500    2.3600    2.3700    2.3800    2.3900
    2.4000    2.4100    2.4200    2.4300    2.4400    2.4500    2.4600    2.4700
    2.4800    2.4900    2.5000    2.5100    2.5200    2.5300    2.5400    2.5500
    2.5600    2.5700    2.5800    2.5900    2.6000    2.6100    2.6200    2.6300
    2.6400    2.6500    2.6600    2.6700    2.6800    2.6900    2.7000    2.7100
    2.7200    2.7300    2.7400    2.7500    2.7600    2.7700    2.7800    2.7900
    2.8000    2.8100    2.8200    2.8300    2.8400    2.8500    2.8600    2.8700
    2.8800    2.8900    2.9000    2.9100    2.9200    2.9300    2.9400    2.9500
    2.9600    2.9700    2.9800    2.9900    3.0000    3.0100    3.0200    3.0300
    3.0400    3.0500    3.0600    3.0700    3.0800    3.0900    3.1000    3.1100
    3.1200    3.1300    3.1400    3.1500    3.1600    3.1700    3.1800    3.1900
    3.2000    3.2100    3.2200    3.2300    3.2400    3.2500    3.2600    3.2700
    3.2800    3.2900    3.3000    3.3100    3.3200    3.3300    3.3400    3.3500
    3.3600    3.3700    3.3800    3.3900    3.4000    3.4100    3.4200    3.4300
    3.4400    3.4500    3.4600    3.4700    3.4800    3.4900    3.5000    3.5100
    3.5200    3.5300    3.5400    3.5500    3.5600    3.5700    3.5800    3.5900
    3.6000    3.6100    3.6200    3.6300    3.6400    3.6500    3.6600    3.6700
    3.6800    3.6900    3.7000    3.7100    3.7200    3.7300    3.7400    3.7500
    3.7600    3.7700    3.7800    3.7900    3.8000    3.8100    3.8200    3.8300
    3.8400    3.8500    3.8600    3.8700    3.8800    3.8900    3.9000    3.9100
    3.9200    3.9300    3.9400    3.9500    3.9600    3.9700    3.9800    3.9900
    4.0000    4.0100    4.0200    4.0300    4.0400    4.0500    4.0600    4.0700
    4.0800    4.0900    4.1000    4.1100    4.1200    4.1300    4.1400    4.1500
    4.1600    4.1700    4.1800    4.1900    4.2000    4.2100    4.2200    4.2300
    4.2400    4.2500    4.2600    4.2700    4.2800    4.2900    4.3000    4.3100
    4.3200    4.3300    4.3400    4.3500    4.3600    4.3700    4.3800    4.3900
    4.4000    4.4100    4.4200    4.4300    4.4400    4.4500    4.4600    4.4700
    4.4800    4.4900    4.5000    4.5100    4.5200    4.5300    4.5400    4.5500
    4.5600    4.5700    4.5800    4.5900    4.6000    4.6100    4.6200    4.6300
    4.6400    4.6500    4.6600    4.6700    4.6800    4.6900    4.7000    4.7100
    4.7200    4.7300    4.7400    4.7500    4.7600    4.7700    4.7800    4.7900
    4.8000    4.8100    4.8200    4.8300    4.8400    4.8500    4.8600    4.8700
    4.8800    4.8900    4.9000    4.9100    4.9200    4.9300    4.9400    4.9500
    4.9600    4.9700    4.9800    4.9900    5.0000    5.0100    5.0200    5.0300
    5.0400    5.0500    5.0600    5.0700    5.0800    5.0900    5.1000    5.1100
    5.1200    5.1300    5.1400    5.1500    5.1600    5.1700    5.1800    5.1900
    5.2000    5.2100    5.2200    5.2300    5.2400    5.2500    5.2600    5.2700
    5.2800    5.2900    5.3000    5.3100    5.3200    5.3300    5.3400    5.3500
    5.3600    5.3700    5.3800    5.3900    5.4000    5.4100    5.4200    5.4300
    5.4400    5.4500    5.4600    5.4700    5.4800    5.4900    5.5000    5.5100
    5.5200    5.5300    5.5400    5.5500    5.5600    5.5700    5.5800    5.5900
    5.6000    5.6100    5.6200    5.6300    5.6400    5.6500    5.6600    5.6700
    5.6800    5.6900    5.7000    5.7100    5.7200    5.7300    5.7400    5.7500
    5.7600    5.7700    5.7800    5.7900    5.8000    5.8100    5.8200    5.8300
    5.8400    5.8500    5.8600    5.8700    5.8800    5.8900    5.9000    5.9100
    5.9200    5.9300    5.9400    5.9500    5.9600    5.9700    5.9800    5.9900
    6.0000    6.0100
   </PP_R>
   <PP_RAB type="real"  size=" 602" columns="8">
    0.0100    0.0100    0.0100    0.0100    0.0100    0.0100    0.0100    0.0100
    0.0100    0.0100    0.0100    0.0100    0.0100    0.0100    0.0100    0.0100
    0.0100    0.0100    0.0100    0.0100    0.0100    0.0100    0.0100    0.0100
    0.0100    0.0100    0.0100    0.0100    0.0100    0.0100    0.0100    0.0100
    0.0100    0.0100    0.0100    0.0100    0.0100    0.0100    0.0100    0.0100
    0.0100    0.0100    0.0100    0.0100    0.0100    0.0100    0.0100    0.0100
    0.0100    0.0100    0.0100    0.0100    0.0100    0.0100    0.0100    0.0100
    0.0100    0.0100    0.0100    0.0100    0.0100    0.0100    0.0100    0.0100
    0.0100    0.0100    0.0100    0.0100    0.0100    0.0100    0.0100    0.0100
    0.0100    0.0100    0.0100    0.0100    0.0100    0.0100    0.0100    0.0100
    0.0100    0.0100    0.0100    0.0100    0.0100    0.0100    0.0100    0.0100
    0.0100    0.0100    0.0100    0.0100    0.0100    0.0100    0.0100    0.0100
    0.0100    0.0100    0.0100    0.0100    0.0100    0.0100    0.0100    0.0100
    0.0100    0.0100    0.0100    0.0100    0.0100    0.0100    0.0100    0.0100
    0.0100    0.0100    0.0100    0.0100    0.0100    0.0100    0.0100    0.0100
    0.0100    0.0100    0.0100    0.0100    0.0100    0.0100    0.0100    0.0100
    0.0100    0.0100    0.0100    0.0100    0.0100    0.0100    0.0100    0.0100
    0.0100    0.0100    0.0100    0.0100    0.0100    0.0100    0.0100    0.0100
    0.0100    0.0100    0.0100    0.0100    0.0100    0.0100    0.0100    0.0100
    0.0100    0.0100    0.0100    0.0100    0.0100    0.0100    0.0100    0.0100
    0.0100    0.0100    0.0100    0.0100    0.0100    0.0100    0.0100    0.0100
    0.0100    0.0100    0.0100    0.0100    0.0100    0.0100    0.0100    0.0100
    0.0100    0.0100    0.0100    0.0100    0.0100    0.0100    0.0100    0.0100
    0.0100    0.0100    0.0100    0.0100    0.0100    0.0100    0.0100    0.0100
    0.0100    0.0100    0.0100    0.0100    0.0100    0.0100    0.0100    0.0100
    0.0100    0.0100    0.0100    0.0100    0.0100    0.0100    0.0100    0.0100
    0.0100    0.0100    0.0100    0.0100    0.0100    0.0100    0.0100    0.0100
    0.0100    0.0100    0.0100    0.0100    0.0100    0.0100    0.0100    0.0100
    0.0100    0.0100    0.0100    0.0100    0.0100    0.0100    0.0100    0.0100
    0.0100    0.0100    0.0100    0.0100    0.0100    0.0100    0.0100    0.0100
    0.0100    0.0100    0.0100    0.0100    0.0100    0.0100    0.0100    0.0100
    0.0100    0.0100    0.0100    0.0100    0.0100    0.0100    0.0100    0.0100
    0.0100    0.0100    0.0100    0.0100    0.0100    0.0100    0.0100    0.0100
    0.0100    0.0100    0.0100    0.0100    0.0100    0.0100    0.0100    0.0100
    0.0100    0.0100    0.0100    0.0100    0.0100    0.0100    0.0100    0.0100
    0.0100    0.0100    0.0100    0.0100    0.0100    0.0100    0.0100    0.0100
    0.0100    0.0100    0.0100    0.0100    0.0100    0.0100    0.0100    0.0100
    0.0100    0.0100    0.0100    0.0100    0.0100    0.0100    0.0100    0.0100
    0.0100    0.0100    0.0100    0.0100    0.0100    0.0100    0.0100    0.0100
    0.0100    0.0100    0.0100    0.0100    0.0100    0.0100    0.0100    0.0100
    0.0100    0.0100    0.0100    0.0100    0.0100    0.0100    0.0100    0.0100
    0.0100    0.0100    0.0100    0.0100    0.0100    0.0100    0.0100    0.0100
    0.0100    0.0100    0.0100    0.0100    0.0100    0.0100    0.0100    0.0100
    0.0100    0.0100    0.0100    0.0100    0.0100    0.0100    0.0100    0.0100
    0.0100    0.0100    0.0100    0.0100    0.0100    0.0100    0.0100    0.0100
    0.0100    0.0100    0.0100    0.0100    0.0100    0.0100    0.0100    0.0100
    0.0100    0.0100    0.0100    0.0100    0.0100    0.0100    0.0100    0.0100
    0.0100    0.0100    0.0100    0.0100    0.0100    0.0100    0.0100    0.0100
    0.0100    0.0100    0.0100    0.0100    0.0100    0.0100    0.0100    0.0100
    0.0100    0.0100    0.0100    0.0100    0.0100    0.0100    0.0100    0.0100
    0.0100    0.0100    0.0100    0.0100    0.0100    0.0100    0.0100    0.0100
    0.0100    0.0100    0.0100    0.0100    0.0100    0.0100    0.0100    0.0100
    0.0100    0.0100    0.0100    0.0100    0.0100    0.0100    0.0100    0.0100
    0.0100    0.0100    0.0100    0.0100    0.0100    0.0100    0.0100    0.0100
    0.0100    0.0100    0.0100    0.0100    0.0100    0.0100    0.0100    0.0100
    0.0100    0.0100    0.0100    0.0100    0.0100    0.0100    0.0100    0.0100
    0.0100    0.0100    0.0100    0.0100    0.0100    0.0100    0.0100    0.0100
    0.0100    0.0100    0.0100    0.0100    0.0100    0.0100    0.0100    0.0100
    0.0100    0.0100    0.0100    0.0100    0.0100    0.0100    0.0100    0.0100
    0.0100    0.0100    0.0100    0.0100    0.0100    0.0100    0.0100    0.0100
    0.0100    0.0100    0.0100    0.0100    0.0100    0.0100    0.0100    0.0100
    0.0100    0.0100    0.0100    0.0100    0.0100    0.0100    0.0100    0.0100
    0.0100    0.0100    0.0100    0.0100    0.0100    0.0100    0.0100    0.0100
    0.0100    0.0100    0.0100    0.0100    0.0100    0.0100    0.0100    0.0100
    0.0100    0.0100    0.0100    0.0100    0.0100    0.0100    0.0100    0.0100
    0.0100    0.0100    0.0100    0.0100    0.0100    0.0100    0.0100    0.0100
    0.0100    0.0100    0.0100    0.0100    0.0100    0.0100    0.0100    0.0100
    0.0100    0.0100    0.0100    0.0100    0.0100    0.0100    0.0100    0.0100
    0.0100    0.0100    0.0100    0.0100    0.0100    0.0100    0.0100    0.0100
    0.0100    0.0100    0.0100    0.0100    0.0100    0.0100    0.0100    0.0100
    0.0100    0.0100    0.0100    0.0100    0.0100    0.0100    0.0100    0.0100
    0.0100    0.0100    0.0100    0.0100    0.0100    0.0100    0.0100    0.0100
    0.0100    0.0100    0.0100    0.0100    0.0100    0.0100    0.0100    0.0100
    0.0100    0.0100    0.0100    0.0100    0.0100    0.0100    0.0100    0.0100
    0.0100    0.0100    0.0100    0.0100    0.0100    0.0100    0.0100    0.0100
    0.0100    0.0100
   </PP_RAB>
 </PP_MESH>
  <PP_LOCAL type="real"  size=" 602" columns="4">
   -3.2669122627E+01   -3.2913107248E+01   -3.2980812866E+01   -3.2953035218E+01
   -3.2910570037E+01   -3.2857354707E+01   -3.2794307952E+01   -3.2722011465E+01
   -3.2640932203E+01   -3.2551460501E+01   -3.2453930007E+01   -3.2348633569E+01
   -3.2235835589E+01   -3.2115780909E+01   -3.1988700698E+01   -3.1854815954E+01
   -3.1714339210E+01   -3.1567474928E+01   -3.1414418951E+01   -3.1255357340E+01
   -3.1090464836E+01   -3.0919903140E+01   -3.0743819197E+01   -3.0562343615E+01
   -3.0375589356E+01   -3.0183650756E+01   -2.9986603047E+01   -2.9784502293E+01
   -2.9577385930E+01   -2.9365273814E+01   -2.9148169798E+01   -2.8926063826E+01
   -2.8698934476E+01   -2.8466751860E+01   -2.8229480878E+01   -2.7987084655E+01
   -2.7739528114E+01   -2.7486781608E+01   -2.7228824447E+01   -2.6965648348E+01
   -2.6697260665E+01   -2.6423687292E+01   -2.6144975285E+01   -2.5861195096E+01
   -2.5572442395E+01   -2.5278839460E+01   -2.4980536115E+01   -2.4677710176E+01
   -2.4370567484E+01   -2.4059341614E+01   -2.3744292813E+01   -2.3425706626E+01
   -2.3103892498E+01   -2.2779181541E+01   -2.2451923840E+01   -2.2122486460E+01
   -2.1791249757E+01   -2.1458604932E+01   -2.1124950434E+01   -2.0790689063E+01
   -2.0456224723E+01   -2.0121959371E+01   -1.9788290369E+01   -1.9455607860E+01
   -1.9124292343E+01   -1.8794713145E+01   -1.8467226637E+01   -1.8142174776E+01
   -1.7819884691E+01   -1.7500668143E+01   -1.7184820942E+01   -1.6872623012E+01
   -1.6564338866E+01   -1.6260217856E+01   -1.5960494647E+01   -1.5665389903E+01
   -1.5375110420E+01   -1.5089850099E+01   -1.4809790386E+01   -1.4535100716E+01
   -1.4265938900E+01   -1.4002451438E+01   -1.3744773732E+01   -1.3493030225E+01
   -1.3247334439E+01   -1.3007788942E+01   -1.2774485241E+01   -1.2547503607E+01
   -1.2326912857E+01   -1.2112770079E+01   -1.1905120340E+01   -1.1703996358E+01
   -1.1509418175E+01   -1.1321392818E+01   -1.1139913970E+01   -1.0964961951E+01
   -1.0796502728E+01   -1.0634487942E+01   -1.0478854847E+01   -1.0329525959E+01
   -1.0186408858E+01   -1.0049396024E+01   -9.9183653610E+00   -9.7931784501E+00
   -9.6736811959E+00   -9.5597042053E+00   -9.4510623974E+00   -9.3475556686E+00
   -9.2489673268E+00   -9.1550638081E+00   -9.0655969993E+00   -8.9802912069E+00
   -8.8988288331E+00   -8.8208211738E+00   -8.7458559436E+00   -8.6735085199E+00
   -8.6033567243E+00   -8.5350166772E+00   -8.4681447084E+00   -8.4024373266E+00
   -8.3376571574E+00   -8.2736217882E+00   -8.2101892251E+00   -8.1472650839E+00
   -8.0847999848E+00   -8.0227647611E+00   -7.9611545908E+00   -7.8999862604E+00
   -7.8392818548E+00   -7.7790722230E+00   -7.7193915979E+00   -7.6602738396E+00
   -7.6017526728E+00   -7.5438577137E+00   -7.4866172310E+00   -7.4300544317E+00
   -7.3741884037E+00   -7.3190369358E+00   -7.2646104912E+00   -7.2109187701E+00
   -7.1579675808E+00   -7.1057588662E+00   -7.0542941626E+00   -7.0035701026E+00
   -6.9535831934E+00   -6.9043274060E+00   -6.8557950161E+00   -6.8079778790E+00
   -6.7608654758E+00   -6.7144476043E+00   -6.6687123536E+00   -6.6236478243E+00
   -6.5792413427E+00   -6.5354799689E+00   -6.4923505417E+00   -6.4498396669E+00
   -6.4079339210E+00   -6.3666198829E+00   -6.3258840870E+00   -6.2857133468E+00
   -6.2460944038E+00   -6.2070144350E+00   -6.1684605933E+00   -6.1304205215E+00
   -6.0928819222E+00   -6.0558329901E+00   -6.0192620629E+00   -5.9831579596E+00
   -5.9475096977E+00   -5.9123067759E+00   -5.8775389098E+00   -5.8431963396E+00
   -5.8092694880E+00   -5.7757494421E+00   -5.7426273159E+00   -5.7098949871E+00
   -5.6775441837E+00   -5.6455674692E+00   -5.6139570876E+00   -5.5827062578E+00
   -5.5518077502E+00   -5.5212550863E+00   -5.4910412901E+00   -5.4611603725E+00
   -5.4316059525E+00   -5.4023722459E+00   -5.3734533594E+00   -5.3448437108E+00
   -5.3165379040E+00   -5.2885305271E+00   -5.2608166467E+00   -5.2333910018E+00
   -5.2062490325E+00   -5.1793857865E+00   -5.1527968546E+00   -5.1264777014E+00
   -5.1004239789E+00   -5.0746315724E+00   -5.0490961829E+00   -5.0238140366E+00
   -4.9987810322E+00   -4.9739935184E+00   -4.9494477497E+00   -4.9251400651E+00
   -4.9010670900E+00   -4.8772251684E+00   -4.8536111631E+00   -4.8302216916E+00
   -4.8070535705E+00   -4.7841037690E+00   -4.7613690562E+00   -4.7388466400E+00
   -4.7165334984E+00   -4.6944267956E+00   -4.6725238255E+00   -4.6508216809E+00
   -4.6293178600E+00   -4.6080096664E+00   -4.5868945094E+00   -4.5659699666E+00
   -4.5452334325E+00   -4.5246825906E+00   -4.5043150559E+00   -4.4841284062E+00
   -4.4641204658E+00   -4.4442889019E+00   -4.4246315127E+00   -4.4051461840E+00
   -4.3858306607E+00   -4.3666829269E+00   -4.3477009106E+00   -4.3288824794E+00
   -4.3102257279E+00   -4.2917286303E+00   -4.2733892039E+00   -4.2552055985E+00
   -4.2371758504E+00   -4.2192981057E+00   -4.2015705660E+00   -4.1839913299E+00
   -4.1665586528E+00   -4.1492707867E+00   -4.1321258904E+00   -4.1151223131E+00
   -4.0982583570E+00   -4.0815322418E+00   -4.0649423957E+00   -4.0484871665E+00
   -4.0321648492E+00   -4.0159739249E+00   -3.9999127959E+00   -3.9839798227E+00
   -3.9681735398E+00   -3.9524924055E+00   -3.9369348356E+00   -3.9214994208E+00
   -3.9061846756E+00   -3.8909890495E+00   -3.8759112198E+00   -3.8609497751E+00
   -3.8461031624E+00   -3.8313702200E+00   -3.8167496414E+00   -3.8022400138E+00
   -3.7878401940E+00   -3.7735489663E+00   -3.7593650462E+00   -3.7452872778E+00
   -3.7313144988E+00   -3.7174454725E+00   -3.7036790642E+00   -3.6900141929E+00
   -3.6764497044E+00   -3.6629844689E+00   -3.6496174712E+00   -3.6363476317E+00
   -3.6231738175E+00   -3.6100950808E+00   -3.5971103997E+00   -3.5842186875E+00
   -3.5714190065E+00   -3.5587104000E+00   -3.5460918552E+00   -3.5335624110E+00
   -3.5211211823E+00   -3.5087672334E+00   -3.4964995735E+00   -3.4843173863E+00
   -3.4722197855E+00   -3.4602058330E+00   -3.4482746930E+00   -3.4364255472E+00
   -3.4246575345E+00   -3.4129697725E+00   -3.4013615148E+00   -3.3898319549E+00
   -3.3783802348E+00   -3.3670056022E+00   -3.3557073114E+00   -3.3444845819E+00
   -3.3333366011E+00   -3.3222626960E+00   -3.3112621331E+00   -3.3003341384E+00
   -3.2894780067E+00   -3.2786930703E+00   -3.2679786298E+00   -3.2573339227E+00
   -3.2467583384E+00   -3.2362512148E+00   -3.2258118663E+00   -3.2154396029E+00
   -3.2051338384E+00   -3.1948939368E+00   -3.1847192254E+00   -3.1746090904E+00
   -3.1645629561E+00   -3.1545802162E+00   -3.1446602137E+00   -3.1348024003E+00
   -3.1250062123E+00   -3.1152710716E+00   -3.1055963395E+00   -3.0959815229E+00
   -3.0864260720E+00   -3.0769294271E+00   -3.0674909952E+00   -3.0581103036E+00
   -3.0487868265E+00   -3.0395200242E+00   -3.0303093441E+00   -3.0211543314E+00
   -3.0120544848E+00   -3.0030092859E+00   -2.9940182148E+00   -2.9850808359E+00
   -2.9761966712E+00   -2.9673652256E+00   -2.9585860037E+00   -2.9498585908E+00
   -2.9411825313E+00   -2.9325573549E+00   -2.9239825833E+00   -2.9154578244E+00
   -2.9069826437E+00   -2.8985565974E+00   -2.8901792177E+00   -2.8818501359E+00
   -2.8735689380E+00   -2.8653352083E+00   -2.8571484829E+00   -2.8490084180E+00
   -2.8409146187E+00   -2.8328666901E+00   -2.8248641934E+00   -2.8169067837E+00
   -2.8089940933E+00   -2.8011257457E+00   -2.7933013331E+00   -2.7855204992E+00
   -2.7777829062E+00   -2.7700881950E+00   -2.7624359906E+00   -2.7548259200E+00
   -2.7472576758E+00   -2.7397309157E+00   -2.7322452974E+00   -2.7248004318E+00
   -2.7173960370E+00   -2.7100317881E+00   -2.7027073590E+00   -2.6954223950E+00
   -2.6881765857E+00   -2.6809696408E+00   -2.6738012489E+00   -2.6666710927E+00
   -2.6595788287E+00   -2.6525242005E+00   -2.6455069114E+00   -2.6385266649E+00
   -2.6315831348E+00   -2.6246760452E+00   -2.6178051304E+00   -2.6109701076E+00
   -2.6041706903E+00   -2.5974065595E+00   -2.5906774862E+00   -2.5839832006E+00
   -2.5773234332E+00   -2.5706978932E+00   -2.5641063143E+00   -2.5575484628E+00
   -2.5510240817E+00   -2.5445329137E+00   -2.5380746672E+00   -2.5316491210E+00
   -2.5252560381E+00   -2.5188951734E+00   -2.5125662779E+00   -2.5062690739E+00
   -2.5000033649E+00   -2.4937689175E+00   -2.4875654977E+00   -2.4813928587E+00
   -2.4752507554E+00   -2.4691389928E+00   -2.4630573481E+00   -2.4570055986E+00
   -2.4509835017E+00   -2.4449908384E+00   -2.4390274170E+00   -2.4330930251E+00
   -2.4271874502E+00   -2.4213104565E+00   -2.4154618446E+00   -2.4096414280E+00
   -2.4038490043E+00   -2.3980843708E+00   -2.3923473001E+00   -2.3866376070E+00
   -2.3809551118E+00   -2.3752996215E+00   -2.3696709430E+00   -2.3640688593E+00
   -2.3584931931E+00   -2.3529437739E+00   -2.3474204177E+00   -2.3419229404E+00
   -2.3364511368E+00   -2.3310048328E+00   -2.3255838687E+00   -2.3201880688E+00
   -2.3148172578E+00   -2.3094712441E+00   -2.3041498516E+00   -2.2988529329E+00
   -2.2935803207E+00   -2.2883318477E+00   -2.2831073375E+00   -2.2779066077E+00
   -2.2727295245E+00   -2.2675759285E+00   -2.2624456601E+00   -2.2573385597E+00
   -2.2522544344E+00   -2.2471931653E+00   -2.2421546002E+00   -2.2371385871E+00
   -2.2321449739E+00   -2.2271735857E+00   -2.2222242871E+00   -2.2172969437E+00
   -2.2123914106E+00   -2.2075075427E+00   -2.2026451851E+00   -2.1978041819E+00
   -2.1929844174E+00   -2.1881857535E+00   -2.1834080518E+00   -2.1786511741E+00
   -2.1739149550E+00   -2.1691992842E+00   -2.1645040343E+00   -2.1598290736E+00
   -2.1551742702E+00   -2.1505394814E+00   -2.1459245681E+00   -2.1413294247E+00
   -2.1367539256E+00   -2.1321979451E+00   -2.1276613575E+00   -2.1231440139E+00
   -2.1186458091E+00   -2.1141666305E+00   -2.1097063582E+00   -2.1052648723E+00
   -2.1008420491E+00   -2.0964377478E+00   -2.0920518797E+00   -2.0876843305E+00
   -2.0833349858E+00   -2.0790037316E+00   -2.0746904413E+00   -2.0703949982E+00
   -2.0661173101E+00   -2.0618572682E+00   -2.0576147635E+00   -2.0533896871E+00
   -2.0491819120E+00   -2.0449913402E+00   -2.0408178782E+00   -2.0366614220E+00
   -2.0325218679E+00   -2.0283991120E+00   -2.0242930287E+00   -2.0202035338E+00
   -2.0161305340E+00   -2.0120739305E+00   -2.0080336241E+00   -2.0040095159E+00
   -2.0000014836E+00   -1.9960094518E+00   -1.9920333297E+00   -1.9880730229E+00
   -1.9841284369E+00   -1.9801994775E+00   -1.9762860270E+00   -1.9723880150E+00
   -1.9685053543E+00   -1.9646379552E+00   -1.9607857275E+00   -1.9569485813E+00
   -1.9531264056E+00   -1.9493191300E+00   -1.9455266735E+00   -1.9417489502E+00
   -1.9379858743E+00   -1.9342373600E+00   -1.9305033042E+00   -1.9267836332E+00
   -1.9230782730E+00   -1.9193871418E+00   -1.9157101578E+00   -1.9120472393E+00
   -1.9083982925E+00   -1.9047632365E+00   -1.9011420060E+00   -1.8975345231E+00
   -1.8939407097E+00   -1.8903604879E+00   -1.8867937749E+00   -1.8832404789E+00
   -1.8797005449E+00   -1.8761738982E+00   -1.8726604647E+00   -1.8691601700E+00
   -1.8656729396E+00   -1.8621986797E+00   -1.8587373345E+00   -1.8552888370E+00
   -1.8518531161E+00   -1.8484301010E+00   -1.8450197208E+00   -1.8416218953E+00
   -1.8382365506E+00   -1.8348636327E+00   -1.8315030739E+00   -1.8281548068E+00
   -1.8248187636E+00   -1.8214948768E+00   -1.8181830591E+00   -1.8148832629E+00
   -1.8115954263E+00   -1.8083194847E+00   -1.8050553737E+00   -1.8018030290E+00
   -1.7985623792E+00   -1.7953333525E+00   -1.7921159025E+00   -1.7889099678E+00
   -1.7857154869E+00   -1.7825323984E+00   -1.7793606408E+00   -1.7762001391E+00
   -1.7730508394E+00   -1.7699126910E+00   -1.7667856352E+00   -1.7636696135E+00
   -1.7605645673E+00   -1.7574704380E+00   -1.7543871487E+00   -1.7513146592E+00
   -1.7482529159E+00   -1.7452018631E+00   -1.7421614448E+00   -1.7391316052E+00
   -1.7361122873E+00   -1.7331034177E+00   -1.7301049619E+00   -1.7271168667E+00
   -1.7241390789E+00   -1.7211715452E+00   -1.7182142124E+00   -1.7152670243E+00
   -1.7123299141E+00   -1.7094028478E+00   -1.7064857747E+00   -1.7035786440E+00
   -1.7006814049E+00   -1.6977940066E+00   -1.6949163955E+00   -1.6920485077E+00
   -1.6891903112E+00   -1.6863417575E+00   -1.6835027983E+00   -1.6806733850E+00
   -1.6778534695E+00   -1.6750430016E+00   -1.6722419175E+00   -1.6694501881E+00
   -1.6666677674E+00   -1.6638946093E+00
  </PP_LOCAL>
 <PP_NONLOCAL>
   <PP_BETA.1
       type="real"
       size=" 602"
       columns="4"
       index="1"
       angular_momentum="0"
       cutoff_radius_index=" 262"
       cutoff_radius="    2.6100000000E+00" >
    0.0000000000E+00    3.3136563874E-02    6.6285297528E-02    9.9458084308E-02
    1.3266623672E-01    1.6592021600E-01    1.9922935777E-01    2.3260160551E-01
    2.6604325394E-01    2.9955870406E-01    3.3315023156E-01    3.6681777038E-01
    4.0055871295E-01    4.3436772852E-01    4.6823660118E-01    5.0215408846E-01
    5.3610580206E-01    5.7007411125E-01    6.0403807020E-01    6.3797336959E-01
    6.7185231338E-01    7.0564382063E-01    7.3931345331E-01    7.7282346951E-01
    8.0613290223E-01    8.3919766375E-01    8.7197067435E-01    9.0440201626E-01
    9.3643911030E-01    9.6802691575E-01    9.9910815197E-01    1.0296235405E+00
    1.0595120648E+00    1.0887112528E+00    1.1171574689E+00    1.1447862249E+00
    1.1715325028E+00    1.1973310910E+00    1.2221169208E+00    1.2458254218E+00
    1.2683928768E+00    1.2897567762E+00    1.3098561773E+00    1.3286320618E+00
    1.3460276889E+00    1.3619889426E+00    1.3764646713E+00    1.3894070126E+00
    1.4007717120E+00    1.4105184405E+00    1.4186110627E+00    1.4250178923E+00
    1.4297119792E+00    1.4326713207E+00    1.4338790101E+00    1.4333235369E+00
    1.4309987919E+00    1.4269043276E+00    1.4210453297E+00    1.4134328137E+00
    1.4040835099E+00    1.3930200368E+00    1.3802707328E+00    1.3658696667E+00
    1.3498565634E+00    1.3322766278E+00    1.3131804317E+00    1.2926237394E+00
    1.2706672643E+00    1.2473764436E+00    1.2228211734E+00    1.1970754999E+00
    1.1702173008E+00    1.1423279400E+00    1.1134918980E+00    1.0837964047E+00
    1.0533309696E+00    1.0221870016E+00    9.9045736355E-01    9.5823591705E-01
    9.2561706063E-01    8.9269526128E-01    8.5956458174E-01    8.2631820647E-01
    7.9304796904E-01    7.5984388416E-01    7.2679368691E-01    6.9398238262E-01
    6.6149181019E-01    6.2940022210E-01    5.9778188425E-01    5.6670669871E-01
    5.3623985271E-01    5.0644149685E-01    4.7736645579E-01    4.4906409296E-01
    4.2157780603E-01    3.9494499064E-01    3.6919698468E-01    3.4435892868E-01