<UPF version="2.0.1">
  <PP_INFO>

 This pseudopotential file has been produced using the code
 ONCVPSP  (Optimized Norm-Conservinng Vanderbilt PSeudopotential)
 scalar-relativistic version 2.1.1, 03/26/2014 by D. R. Hamann
 The code is available through a link at URL www.mat-simresearch.com.
 Documentation with the package provides a full discription of the
 input data below.


 While it is not required under the terms of the GNU GPL, it is
 suggested that you cite D. R. Hamann, Phys. Rev. B 88, 085117 (2013)
 in any publication using these pseudopotentials.


 Copyright 2015 The Regents of the University of California
 
 This work is licensed under the Creative Commons Attribution-ShareAlike 
 4.0 International License. To view a copy of this license, visit 
 http://creativecommons.org/licenses/by-sa/4.0/ or send a letter to 
 Creative Commons, PO Box 1866, Mountain View, CA 94042, USA.
 
 This pseudopotential is part of the Schlipf-Gygi norm-conserving 
 pseudopotential library. Its construction parameters were tuned to 
 reproduce materials of a training set with very high accuracy and 
 should be suitable as a general purpose pseudopotential to treat a 
 variety of different compounds. For details of the construction and 
 testing of the pseudopotential please refer to:
 
 [insert reference to paper here]
 
 We kindly ask that you include this reference in all publications 
 associated to this pseudopotential.


    <PP_INPUTFILE>
# ATOM AND REFERENCE CONFIGURATION
# atsym  z    nc    nv    iexc   psfile
  Pd 46.00     6     4     4      upf
#
#   n    l    f        energy (Ha)
    1    0    2.00
    2    0    2.00
    2    1    6.00
    3    0    2.00
    3    1    6.00
    3    2   10.00
    4    0    2.00
    4    1    6.00
    5    0    2.00
    4    2    8.00
#
# PSEUDOPOTENTIAL AND OPTIMIZATION
# lmax
    2
#
#   l,   rc,     ep,   ncon, nbas, qcut
    0   2.44164  -3.40292    5    8   5.62509
    1   2.41269  -2.13844    5    8   5.81435
    2   2.24604  -0.35620    5    8   6.62505
#
# LOCAL POTENTIAL
# lloc, lpopt,  rc(5),   dvloc0
    4    5   1.41052      0.00000
#
# VANDERBILT-KLEINMAN-BYLANDER PROJECTORs
# l, nproj, debl
    0    2   3.20303
    1    2   2.09163
    2    2   1.16310
#
# MODEL CORE CHARGE
# icmod, fcfact
    0   0.00000
#
# LOG DERIVATIVE ANALYSIS
# epsh1, epsh2, depsh
   -5.00    3.00    0.02
#
# OUTPUT GRID
# rlmax, drl
    6.00    0.01
#
# TEST CONFIGURATIONS
# ncnf
    0
# nvcnf
#   n    l    f
    </PP_INPUTFILE>
  </PP_INFO>
  <!--                               -->
  <!-- END OF HUMAN READABLE SECTION -->
  <!--                               -->
    <PP_HEADER
       generated="Generated using ONCVPSP code by D. R. Hamann"
       author="Martin Schlipf and Francois Gygi"
       date="150105"
       comment=""
       element="Pd"
       pseudo_type="NC"
       relativistic="scalar"
       is_ultrasoft="F"
       is_paw="F"
       is_coulomb="F"
       has_so="F"
       has_wfc="F"
       has_gipaw="F"
       core_correction="F"
       functional="PBE"
       z_valence="   18.00"
       total_psenergy="  -1.26383953046E+02"
       rho_cutoff="   6.01000000000E+00"
       l_max="2"
       l_local="-1"
       mesh_size="   602"
       number_of_wfc="0"
       number_of_proj="6"/>
 <PP_MESH>
   <PP_R type="real"  size=" 602" columns="8">
    0.0000    0.0100    0.0200    0.0300    0.0400    0.0500    0.0600    0.0700
    0.0800    0.0900    0.1000    0.1100    0.1200    0.1300    0.1400    0.1500
    0.1600    0.1700    0.1800    0.1900    0.2000    0.2100    0.2200    0.2300
    0.2400    0.2500    0.2600    0.2700    0.2800    0.2900    0.3000    0.3100
    0.3200    0.3300    0.3400    0.3500    0.3600    0.3700    0.3800    0.3900
    0.4000    0.4100    0.4200    0.4300    0.4400    0.4500    0.4600    0.4700
    0.4800    0.4900    0.5000    0.5100    0.5200    0.5300    0.5400    0.5500
    0.5600    0.5700    0.5800    0.5900    0.6000    0.6100    0.6200    0.6300
    0.6400    0.6500    0.6600    0.6700    0.6800    0.6900    0.7000    0.7100
    0.7200    0.7300    0.7400    0.7500    0.7600    0.7700    0.7800    0.7900
    0.8000    0.8100    0.8200    0.8300    0.8400    0.8500    0.8600    0.8700
    0.8800    0.8900    0.9000    0.9100    0.9200    0.9300    0.9400    0.9500
    0.9600    0.9700    0.9800    0.9900    1.0000    1.0100    1.0200    1.0300
    1.0400    1.0500    1.0600    1.0700    1.0800    1.0900    1.1000    1.1100
    1.1200    1.1300    1.1400    1.1500    1.1600    1.1700    1.1800    1.1900
    1.2000    1.2100    1.2200    1.2300    1.2400    1.2500    1.2600    1.2700
    1.2800    1.2900    1.3000    1.3100    1.3200    1.3300    1.3400    1.3500
    1.3600    1.3700    1.3800    1.3900    1.4000    1.4100    1.4200    1.4300
    1.4400    1.4500    1.4600    1.4700    1.4800    1.4900    1.5000    1.5100
    1.5200    1.5300    1.5400    1.5500    1.5600    1.5700    1.5800    1.5900
    1.6000    1.6100    1.6200    1.6300    1.6400    1.6500    1.6600    1.6700
    1.6800    1.6900    1.7000    1.7100    1.7200    1.7300    1.7400    1.7500
    1.7600    1.7700    1.7800    1.7900    1.8000    1.8100    1.8200    1.8300
    1.8400    1.8500    1.8600    1.8700    1.8800    1.8900    1.9000    1.9100
    1.9200    1.9300    1.9400    1.9500    1.9600    1.9700    1.9800    1.9900
    2.0000    2.0100    2.0200    2.0300    2.0400    2.0500    2.0600    2.0700
    2.0800    2.0900    2.1000    2.1100    2.1200    2.1300    2.1400    2.1500
    2.1600    2.1700    2.1800    2.1900    2.2000    2.2100    2.2200    2.2300
    2.2400    2.2500    2.2600    2.2700    2.2800    2.2900    2.3000    2.3100
    2.3200    2.3300    2.3400    2.3500    2.3600    2.3700    2.3800    2.3900
    2.4000    2.4100    2.4200    2.4300    2.4400    2.4500    2.4600    2.4700
    2.4800    2.4900    2.5000    2.5100    2.5200    2.5300    2.5400    2.5500
    2.5600    2.5700    2.5800    2.5900    2.6000    2.6100    2.6200    2.6300
    2.6400    2.6500    2.6600    2.6700    2.6800    2.6900    2.7000    2.7100
    2.7200    2.7300    2.7400    2.7500    2.7600    2.7700    2.7800    2.7900
    2.8000    2.8100    2.8200    2.8300    2.8400    2.8500    2.8600    2.8700
    2.8800    2.8900    2.9000    2.9100    2.9200    2.9300    2.9400    2.9500
    2.9600    2.9700    2.9800    2.9900    3.0000    3.0100    3.0200    3.0300
    3.0400    3.0500    3.0600    3.0700    3.0800    3.0900    3.1000    3.1100
    3.1200    3.1300    3.1400    3.1500    3.1600    3.1700    3.1800    3.1900
    3.2000    3.2100    3.2200    3.2300    3.2400    3.2500    3.2600    3.2700
    3.2800    3.2900    3.3000    3.3100    3.3200    3.3300    3.3400    3.3500
    3.3600    3.3700    3.3800    3.3900    3.4000    3.4100    3.4200    3.4300
    3.4400    3.4500    3.4600    3.4700    3.4800    3.4900    3.5000    3.5100
    3.5200    3.5300    3.5400    3.5500    3.5600    3.5700    3.5800    3.5900
    3.6000    3.6100    3.6200    3.6300    3.6400    3.6500    3.6600    3.6700
    3.6800    3.6900    3.7000    3.7100    3.7200    3.7300    3.7400    3.7500
    3.7600    3.7700    3.7800    3.7900    3.8000    3.8100    3.8200    3.8300
    3.8400    3.8500    3.8600    3.8700    3.8800    3.8900    3.9000    3.9100
    3.9200    3.9300    3.9400    3.9500    3.9600    3.9700    3.9800    3.9900
    4.0000    4.0100    4.0200    4.0300    4.0400    4.0500    4.0600    4.0700
    4.0800    4.0900    4.1000    4.1100    4.1200    4.1300    4.1400    4.1500
    4.1600    4.1700    4.1800    4.1900    4.2000    4.2100    4.2200    4.2300
    4.2400    4.2500    4.2600    4.2700    4.2800    4.2900    4.3000    4.3100
    4.3200    4.3300    4.3400    4.3500    4.3600    4.3700    4.3800    4.3900
    4.4000    4.4100    4.4200    4.4300    4.4400    4.4500    4.4600    4.4700
    4.4800    4.4900    4.5000    4.5100    4.5200    4.5300    4.5400    4.5500
    4.5600    4.5700    4.5800    4.5900    4.6000    4.6100    4.6200    4.6300
    4.6400    4.6500    4.6600    4.6700    4.6800    4.6900    4.7000    4.7100
    4.7200    4.7300    4.7400    4.7500    4.7600    4.7700    4.7800    4.7900
    4.8000    4.8100    4.8200    4.8300    4.8400    4.8500    4.8600    4.8700
    4.8800    4.8900    4.9000    4.9100    4.9200    4.9300    4.9400    4.9500
    4.9600    4.9700    4.9800    4.9900    5.0000    5.0100    5.0200    5.0300
    5.0400    5.0500    5.0600    5.0700    5.0800    5.0900    5.1000    5.1100
    5.1200    5.1300    5.1400    5.1500    5.1600    5.1700    5.1800    5.1900
    5.2000    5.2100    5.2200    5.2300    5.2400    5.2500    5.2600    5.2700
    5.2800    5.2900    5.3000    5.3100    5.3200    5.3300    5.3400    5.3500
    5.3600    5.3700    5.3800    5.3900    5.4000    5.4100    5.4200    5.4300
    5.4400    5.4500    5.4600    5.4700    5.4800    5.4900    5.5000    5.5100
    5.5200    5.5300    5.5400    5.5500    5.5600    5.5700    5.5800    5.5900
    5.6000    5.6100    5.6200    5.6300    5.6400    5.6500    5.6600    5.6700
    5.6800    5.6900    5.7000    5.7100    5.7200    5.7300    5.7400    5.7500
    5.7600    5.7700    5.7800    5.7900    5.8000    5.8100    5.8200    5.8300
    5.8400    5.8500    5.8600    5.8700    5.8800    5.8900    5.9000    5.9100
    5.9200    5.9300    5.9400    5.9500    5.9600    5.9700    5.9800    5.9900
    6.0000    6.0100
   </PP_R>
   <PP_RAB type="real"  size=" 602" columns="8">
    0.0100    0.0100    0.0100    0.0100    0.0100    0.0100    0.0100    0.0100
    0.0100    0.0100    0.0100    0.0100    0.0100    0.0100    0.0100    0.0100
    0.0100    0.0100    0.0100    0.0100    0.0100    0.0100    0.0100    0.0100
    0.0100    0.0100    0.0100    0.0100    0.0100    0.0100    0.0100    0.0100
    0.0100    0.0100    0.0100    0.0100    0.0100    0.0100    0.0100    0.0100
    0.0100    0.0100    0.0100    0.0100    0.0100    0.0100    0.0100    0.0100
    0.0100    0.0100    0.0100    0.0100    0.0100    0.0100    0.0100    0.0100
    0.0100    0.0100    0.0100    0.0100    0.0100    0.0100    0.0100    0.0100
    0.0100    0.0100    0.0100    0.0100    0.0100    0.0100    0.0100    0.0100
    0.0100    0.0100    0.0100    0.0100    0.0100    0.0100    0.0100    0.0100
    0.0100    0.0100    0.0100    0.0100    0.0100    0.0100    0.0100    0.0100
    0.0100    0.0100    0.0100    0.0100    0.0100    0.0100    0.0100    0.0100
    0.0100    0.0100    0.0100    0.0100    0.0100    0.0100    0.0100    0.0100
    0.0100    0.0100    0.0100    0.0100    0.0100    0.0100    0.0100    0.0100
    0.0100    0.0100    0.0100    0.0100    0.0100    0.0100    0.0100    0.0100
    0.0100    0.0100    0.0100    0.0100    0.0100    0.0100    0.0100    0.0100
    0.0100    0.0100    0.0100    0.0100    0.0100    0.0100    0.0100    0.0100
    0.0100    0.0100    0.0100    0.0100    0.0100    0.0100    0.0100    0.0100
    0.0100    0.0100    0.0100    0.0100    0.0100    0.0100    0.0100    0.0100
    0.0100    0.0100    0.0100    0.0100    0.0100    0.0100    0.0100    0.0100
    0.0100    0.0100    0.0100    0.0100    0.0100    0.0100    0.0100    0.0100
    0.0100    0.0100    0.0100    0.0100    0.0100    0.0100    0.0100    0.0100
    0.0100    0.0100    0.0100    0.0100    0.0100    0.0100    0.0100    0.0100
    0.0100    0.0100    0.0100    0.0100    0.0100    0.0100    0.0100    0.0100
    0.0100    0.0100    0.0100    0.0100    0.0100    0.0100    0.0100    0.0100
    0.0100    0.0100    0.0100    0.0100    0.0100    0.0100    0.0100    0.0100
    0.0100    0.0100    0.0100    0.0100    0.0100    0.0100    0.0100    0.0100
    0.0100    0.0100    0.0100    0.0100    0.0100    0.0100    0.0100    0.0100
    0.0100    0.0100    0.0100    0.0100    0.0100    0.0100    0.0100    0.0100
    0.0100    0.0100    0.0100    0.0100    0.0100    0.0100    0.0100    0.0100
    0.0100    0.0100    0.0100    0.0100    0.0100    0.0100    0.0100    0.0100
    0.0100    0.0100    0.0100    0.0100    0.0100    0.0100    0.0100    0.0100
    0.0100    0.0100    0.0100    0.0100    0.0100    0.0100    0.0100    0.0100
    0.0100    0.0100    0.0100    0.0100    0.0100    0.0100    0.0100    0.0100
    0.0100    0.0100    0.0100    0.0100    0.0100    0.0100    0.0100    0.0100
    0.0100    0.0100    0.0100    0.0100    0.0100    0.0100    0.0100    0.0100
    0.0100    0.0100    0.0100    0.0100    0.0100    0.0100    0.0100    0.0100
    0.0100    0.0100    0.0100    0.0100    0.0100    0.0100    0.0100    0.0100
    0.0100    0.0100    0.0100    0.0100    0.0100    0.0100    0.0100    0.0100
    0.0100    0.0100    0.0100    0.0100    0.0100    0.0100    0.0100    0.0100
    0.0100    0.0100    0.0100    0.0100    0.0100    0.0100    0.0100    0.0100
    0.0100    0.0100    0.0100    0.0100    0.0100    0.0100    0.0100    0.0100
    0.0100    0.0100    0.0100    0.0100    0.0100    0.0100    0.0100    0.0100
    0.0100    0.0100    0.0100    0.0100    0.0100    0.0100    0.0100    0.0100
    0.0100    0.0100    0.0100    0.0100    0.0100    0.0100    0.0100    0.0100
    0.0100    0.0100    0.0100    0.0100    0.0100    0.0100    0.0100    0.0100
    0.0100    0.0100    0.0100    0.0100    0.0100    0.0100    0.0100    0.0100
    0.0100    0.0100    0.0100    0.0100    0.0100    0.0100    0.0100    0.0100
    0.0100    0.0100    0.0100    0.0100    0.0100    0.0100    0.0100    0.0100
    0.0100    0.0100    0.0100    0.0100    0.0100    0.0100    0.0100    0.0100
    0.0100    0.0100    0.0100    0.0100    0.0100    0.0100    0.0100    0.0100
    0.0100    0.0100    0.0100    0.0100    0.0100    0.0100    0.0100    0.0100
    0.0100    0.0100    0.0100    0.0100    0.0100    0.0100    0.0100    0.0100
    0.0100    0.0100    0.0100    0.0100    0.0100    0.0100    0.0100    0.0100
    0.0100    0.0100    0.0100    0.0100    0.0100    0.0100    0.0100    0.0100
    0.0100    0.0100    0.0100    0.0100    0.0100    0.0100    0.0100    0.0100
    0.0100    0.0100    0.0100    0.0100    0.0100    0.0100    0.0100    0.0100
    0.0100    0.0100    0.0100    0.0100    0.0100    0.0100    0.0100    0.0100
    0.0100    0.0100    0.0100    0.0100    0.0100    0.0100    0.0100    0.0100
    0.0100    0.0100    0.0100    0.0100    0.0100    0.0100    0.0100    0.0100
    0.0100    0.0100    0.0100    0.0100    0.0100    0.0100    0.0100    0.0100
    0.0100    0.0100    0.0100    0.0100    0.0100    0.0100    0.0100    0.0100
    0.0100    0.0100    0.0100    0.0100    0.0100    0.0100    0.0100    0.0100
    0.0100    0.0100    0.0100    0.0100    0.0100    0.0100    0.0100    0.0100
    0.0100    0.0100    0.0100    0.0100    0.0100    0.0100    0.0100    0.0100
    0.0100    0.0100    0.0100    0.0100    0.0100    0.0100    0.0100    0.0100
    0.0100    0.0100    0.0100    0.0100    0.0100    0.0100    0.0100    0.0100
    0.0100    0.0100    0.0100    0.0100    0.0100    0.0100    0.0100    0.0100
    0.0100    0.0100    0.0100    0.0100    0.0100    0.0100    0.0100    0.0100
    0.0100    0.0100    0.0100    0.0100    0.0100    0.0100    0.0100    0.0100
    0.0100    0.0100    0.0100    0.0100    0.0100    0.0100    0.0100    0.0100
    0.0100    0.0100    0.0100    0.0100    0.0100    0.0100    0.0100    0.0100
    0.0100    0.0100    0.0100    0.0100    0.0100    0.0100    0.0100    0.0100
    0.0100    0.0100    0.0100    0.0100    0.0100    0.0100    0.0100    0.0100
    0.0100    0.0100    0.0100    0.0100    0.0100    0.0100    0.0100    0.0100
    0.0100    0.0100
   </PP_RAB>
 </PP_MESH>
  <PP_LOCAL type="real"  size=" 602" columns="4">
   -5.4785550311E+01   -5.4783226504E+01   -5.4776293758E+01   -5.4764709500E+01
   -5.4748431157E+01   -5.4727402836E+01   -5.4701558636E+01   -5.4670826386E+01
   -5.4635131523E+01   -5.4594400845E+01   -5.4548565885E+01   -5.4497565769E+01
   -5.4441349423E+01   -5.4379877126E+01   -5.4313121397E+01   -5.4241067299E+01
   -5.4163712247E+01   -5.4081065420E+01   -5.3993146876E+01   -5.3899986497E+01
   -5.3801622814E+01   -5.3698101821E+01   -5.3589475806E+01   -5.3475802250E+01
   -5.3357142823E+01   -5.3233562491E+01   -5.3105128725E+01   -5.2971910837E+01
   -5.2833979409E+01   -5.2691405832E+01   -5.2544261918E+01   -5.2392619600E+01
   -5.2236550689E+01   -5.2076126685E+01   -5.1911418635E+01   -5.1742497028E+01
   -5.1569431716E+01   -5.1392291857E+01   -5.1211145885E+01   -5.1026061485E+01
   -5.0837105582E+01   -5.0644344340E+01   -5.0447843173E+01   -5.0247666757E+01
   -5.0043879049E+01   -4.9836543318E+01   -4.9625722175E+01   -4.9411477619E+01
   -4.9193871078E+01   -4.8972963478E+01   -4.8748815300E+01   -4.8521486669E+01
   -4.8291037435E+01   -4.8057527282E+01   -4.7821015837E+01   -4.7581562807E+01
   -4.7339228110E+01   -4.7094072046E+01   -4.6846155436E+01   -4.6595539844E+01
   -4.6342287711E+01   -4.6086462609E+01   -4.5828129401E+01   -4.5567354442E+01
   -4.5304205843E+01   -4.5038753597E+01   -4.4771069780E+01   -4.4501228821E+01
   -4.4229307572E+01   -4.3955385466E+01   -4.3679544655E+01   -4.3401870181E+01
   -4.3122449950E+01   -4.2841374805E+01   -4.2558738541E+01   -4.2274637864E+01
   -4.1989172367E+01   -4.1702444456E+01   -4.1414559181E+01   -4.1125624110E+01
   -4.0835749155E+01   -4.0545046375E+01   -4.0253629756E+01   -3.9961614971E+01
   -3.9669119135E+01   -3.9376260543E+01   -3.9083158400E+01   -3.8789932555E+01
   -3.8496703228E+01   -3.8203590746E+01   -3.7910715277E+01   -3.7618196579E+01
   -3.7326153753E+01   -3.7034705008E+01   -3.6743967449E+01   -3.6454056882E+01
   -3.6165087520E+01   -3.5877171888E+01   -3.5590420617E+01   -3.5304942279E+01
   -3.5020843236E+01   -3.4738227496E+01   -3.4457196750E+01   -3.4177849743E+01
   -3.3900282607E+01   -3.3624588616E+01   -3.3350858082E+01   -3.3079178495E+01
   -3.2809633789E+01   -3.2542304652E+01   -3.2277268480E+01   -3.2014599397E+01
   -3.1754367988E+01   -3.1496640675E+01   -3.1241480440E+01   -3.0988946785E+01
   -3.0739095147E+01   -3.0491976418E+01   -3.0247637812E+01   -3.0006123219E+01
   -2.9767470923E+01   -2.9531715305E+01   -2.9298887193E+01   -2.9069012387E+01
   -2.8842111569E+01   -2.8618202018E+01   -2.8397296261E+01   -2.8179400867E+01
   -2.7964519282E+01   -2.7752649959E+01   -2.7543785126E+01   -2.7337914337E+01
   -2.7135021166E+01   -2.6935083521E+01   -2.6738077192E+01   -2.6543970099E+01
   -2.6352726445E+01   -2.6164307493E+01   -2.5978665832E+01   -2.5795752852E+01
   -2.5615513147E+01   -2.5437886300E+01   -2.5262809104E+01   -2.5090215679E+01
   -2.4920041189E+01   -2.4752223478E+01   -2.4586702308E+01   -2.4423418496E+01
   -2.4262316687E+01   -2.4103340920E+01   -2.3946439961E+01   -2.3791562224E+01
   -2.3638659457E+01   -2.3487684690E+01   -2.3338592557E+01   -2.3191340452E+01
   -2.3045885827E+01   -2.2902190070E+01   -2.2760213376E+01   -2.2619920565E+01
   -2.2481274851E+01   -2.2344243653E+01   -2.2208793200E+01   -2.2074893125E+01
   -2.1942512361E+01   -2.1811622566E+01   -2.1682195018E+01   -2.1554203258E+01
   -2.1427620602E+01   -2.1302422357E+01   -2.1178583627E+01   -2.1056081413E+01
   -2.0934892413E+01   -2.0814995300E+01   -2.0696368214E+01   -2.0578991515E+01
   -2.0462844668E+01   -2.0347909756E+01   -2.0234167473E+01   -2.0121601586E+01
   -2.0010194138E+01   -1.9899930257E+01   -1.9790793659E+01   -1.9682770419E+01
   -1.9575846006E+01   -1.9470007258E+01   -1.9365241309E+01   -1.9261535613E+01
   -1.9158878729E+01   -1.9057258670E+01   -1.8956665004E+01   -1.8857086410E+01
   -1.8758512854E+01   -1.8660933855E+01   -1.8564339326E+01   -1.8468719287E+01
   -1.8374063688E+01   -1.8280362528E+01   -1.8187605920E+01   -1.8095783524E+01
   -1.8004885329E+01   -1.7914900833E+01   -1.7825819491E+01   -1.7737630825E+01
   -1.7650323622E+01   -1.7563887231E+01   -1.7478310133E+01   -1.7393581034E+01
   -1.7309688519E+01   -1.7226620718E+01   -1.7144366100E+01   -1.7062912687E+01
   -1.6982248592E+01   -1.6902361952E+01   -1.6823240907E+01   -1.6744873415E+01
   -1.6667247946E+01   -1.6590352748E+01   -1.6514176122E+01   -1.6438707174E+01
   -1.6363934222E+01   -1.6289846739E+01   -1.6216434320E+01   -1.6143685688E+01
   -1.6071591917E+01   -1.6000142823E+01   -1.5929328837E+01   -1.5859141886E+01
   -1.5789572755E+01   -1.5720613354E+01   -1.5652255727E+01   -1.5584491349E+01
   -1.5517312722E+01   -1.5450711902E+01   -1.5384680847E+01   -1.5319212612E+01
   -1.5254299605E+01   -1.5189934543E+01   -1.5126110765E+01   -1.5062821007E+01
   -1.5000058628E+01   -1.4937817278E+01   -1.4876090061E+01   -1.4814870866E+01
   -1.4754153605E+01   -1.4693931744E+01   -1.4634199559E+01   -1.4574951196E+01
   -1.4516180421E+01   -1.4457881820E+01   -1.4400049767E+01   -1.4342678263E+01
   -1.4285762211E+01   -1.4229296241E+01   -1.4173274640E+01   -1.4117692545E+01
   -1.4062544837E+01   -1.4007826063E+01   -1.3953531567E+01   -1.3899656481E+01
   -1.3846195620E+01   -1.3793144487E+01   -1.3740498470E+01   -1.3688252649E+01
   -1.3636402648E+01   -1.3584944110E+01   -1.3533872383E+01   -1.3483183175E+01
   -1.3432872381E+01   -1.3382935622E+01   -1.3333368654E+01   -1.3284167623E+01
   -1.3235328425E+01   -1.3186846833E+01   -1.3138719242E+01   -1.3090941789E+01
   -1.3043510341E+01   -1.2996421435E+01   -1.2949671418E+01   -1.2903256425E+01
   -1.2857172934E+01   -1.2811417557E+01   -1.2765986703E+01   -1.2720876765E+01
   -1.2676084613E+01   -1.2631606898E+01   -1.2587440025E+01   -1.2543580993E+01
   -1.2500026647E+01   -1.2456773663E+01   -1.2413818893E+01   -1.2371159449E+01
   -1.2328792288E+01   -1.2286714104E+01   -1.2244922255E+01   -1.2203413842E+01
   -1.2162185828E+01   -1.2121235373E+01   -1.2080559850E+01   -1.2040156493E+01
   -1.2000022295E+01   -1.1960154837E+01   -1.1920551496E+01   -1.1881209541E+01
   -1.1842126306E+01   -1.1803299442E+01   -1.1764726435E+01   -1.1726404589E+01
   -1.1688331584E+01   -1.1650505094E+01   -1.1612922710E+01   -1.1575581825E+01
   -1.1538480380E+01   -1.1501616090E+01   -1.1464986587E+01   -1.1428589541E+01
   -1.1392422934E+01   -1.1356484586E+01   -1.1320772185E+01   -1.1285283638E+01
   -1.1250016972E+01   -1.1214970109E+01   -1.1180140800E+01   -1.1145527155E+01
   -1.1111127249E+01   -1.1076939103E+01   -1.1042960539E+01   -1.1009189832E+01
   -1.0975625118E+01   -1.0942264507E+01   -1.0909105901E+01   -1.0876147709E+01
   -1.0843388131E+01   -1.0810825355E+01   -1.0778457400E+01   -1.0746282745E+01
   -1.0714299674E+01   -1.0682506458E+01   -1.0650901205E+01   -1.0619482471E+01
   -1.0588248619E+01   -1.0557198009E+01   -1.0526328814E+01   -1.0495639667E+01
   -1.0465129009E+01   -1.0434795279E+01   -1.0404636738E+01   -1.0374652054E+01
   -1.0344839758E+01   -1.0315198360E+01   -1.0285726223E+01   -1.0256422019E+01
   -1.0227284375E+01   -1.0198311872E+01   -1.0169502978E+01   -1.0140856347E+01
   -1.0112370708E+01   -1.0084044707E+01   -1.0055876925E+01   -1.0027865979E+01
   -1.0000010698E+01   -9.9723097956E+00   -9.9447619701E+00   -9.9173657794E+00
   -9.8901201614E+00   -9.8630238872E+00   -9.8360757277E+00   -9.8092743268E+00
   -9.7826185710E+00   -9.7561073401E+00   -9.7297394624E+00   -9.7035137096E+00
   -9.6774288650E+00   -9.6514839296E+00   -9.6256777862E+00   -9.6000093175E+00
   -9.5744772606E+00   -9.5490806664E+00   -9.5238184921E+00   -9.4986896727E+00
   -9.4736930806E+00   -9.4488276260E+00   -9.4240923981E+00   -9.3994863814E+00
   -9.3750085605E+00   -9.3506577891E+00   -9.3264331895E+00   -9.3023338242E+00
   -9.2783587253E+00   -9.2545068915E+00   -9.2307772714E+00   -9.2071690667E+00
   -9.1836813542E+00   -9.1603132110E+00   -9.1370636301E+00   -9.1139317226E+00
   -9.0909166807E+00   -9.0680176244E+00   -9.0452336735E+00   -9.0225638257E+00
   -9.0000073280E+00   -8.9775633694E+00   -8.9552311110E+00   -8.9330097080E+00
   -8.9108981893E+00   -8.8888958936E+00   -8.8670020210E+00   -8.8452157716E+00
   -8.8235363156E+00   -8.8019627761E+00   -8.7804945040E+00   -8.7591307369E+00
   -8.7378707120E+00   -8.7167136224E+00   -8.6956586631E+00   -8.6747052040E+00
   -8.6538525179E+00   -8.6330998777E+00   -8.6124465065E+00   -8.5918916500E+00
   -8.5714347034E+00   -8.5510749735E+00   -8.5308117670E+00   -8.5106443437E+00
   -8.4905719799E+00   -8.4705941028E+00   -8.4507100513E+00   -8.4309191645E+00
   -8.4112207450E+00   -8.3916140813E+00   -8.3720986381E+00   -8.3526737853E+00
   -8.3333388928E+00   -8.3140933120E+00   -8.2949363260E+00   -8.2758674428E+00
   -8.2568860615E+00   -8.2379915816E+00   -8.2191834020E+00   -8.2004608052E+00
   -8.1818233265E+00   -8.1632703998E+00   -8.1448014524E+00   -8.1264159115E+00
   -8.1081131198E+00   -8.0898925685E+00   -8.0717537498E+00   -8.0536961178E+00
   -8.0357191263E+00   -8.0178221844E+00   -8.0000047245E+00   -7.9822663011E+00
   -7.9646063936E+00   -7.9470244815E+00   -7.9295200439E+00   -7.9120924469E+00
   -7.8947413052E+00   -7.8774661238E+00   -7.8602664064E+00   -7.8431416566E+00
   -7.8260913161E+00   -7.8091149094E+00   -7.7922120163E+00   -7.7753821635E+00
   -7.7586248776E+00   -7.7419396826E+00   -7.7253260016E+00   -7.7087834900E+00
   -7.6923116965E+00   -7.6759101700E+00   -7.6595784591E+00   -7.6433160639E+00
   -7.6271225303E+00   -7.6109974888E+00   -7.5949405091E+00   -7.5789511611E+00
   -7.5630290146E+00   -7.5471735547E+00   -7.5313844299E+00   -7.5156612517E+00
   -7.5000036098E+00   -7.4844110942E+00   -7.4688832857E+00   -7.4534196907E+00
   -7.4380200118E+00   -7.4226838580E+00   -7.4074108383E+00   -7.3922005615E+00
   -7.3770526058E+00   -7.3619665456E+00   -7.3469420785E+00   -7.3319788319E+00
   -7.3170764328E+00   -7.3022345086E+00   -7.2874526415E+00   -7.2727304562E+00
   -7.2580676520E+00   -7.2434638735E+00   -7.2289187653E+00   -7.2144319719E+00
   -7.2000030865E+00   -7.1856317674E+00   -7.1713177217E+00   -7.1570606104E+00
   -7.1428600947E+00   -7.1287158358E+00   -7.1146274441E+00   -7.1005945950E+00
   -7.0866170099E+00   -7.0726943656E+00   -7.0588263390E+00   -7.0450126070E+00
   -7.0312528032E+00   -7.0175466052E+00   -7.0038937543E+00   -6.9902939424E+00
   -6.9767468616E+00   -6.9632522038E+00   -6.9498096310E+00   -6.9364188091E+00
   -6.9230795047E+00   -6.9097914243E+00   -6.8965542742E+00   -6.8833677606E+00
   -6.8702315794E+00   -6.8571453718E+00   -6.8441089346E+00   -6.8311219878E+00
   -6.8181842515E+00   -6.8052954456E+00   -6.7924552902E+00   -6.7796634341E+00
   -6.7669196643E+00   -6.7542237284E+00   -6.7415753596E+00   -6.7289742908E+00
   -6.7164202552E+00   -6.7039129462E+00   -6.6914520971E+00   -6.6790374983E+00
   -6.6666688951E+00   -6.6543460331E+00   -6.6420686578E+00   -6.6298365121E+00
   -6.6176492657E+00   -6.6055067542E+00   -6.5934087352E+00   -6.5813549658E+00
   -6.5693452035E+00   -6.5573792056E+00   -6.5454566881E+00   -6.5335774160E+00
   -6.5217411972E+00   -6.5099478003E+00   -6.4981969940E+00   -6.4864885468E+00
   -6.4748222275E+00   -6.4631977333E+00   -6.4516149075E+00   -6.4400735359E+00
   -6.4285733980E+00   -6.4171142731E+00   -6.4056959407E+00   -6.3943181612E+00
   -6.3829806780E+00   -6.3716833381E+00   -6.3604259313E+00   -6.3492082472E+00
   -6.3380300756E+00   -6.3268912061E+00   -6.3157913913E+00   -6.3047304249E+00
   -6.2937081440E+00   -6.2827243484E+00   -6.2717788374E+00   -6.2608714105E+00
   -6.2500018673E+00   -6.2391699591E+00   -6.2283755145E+00   -6.2176183674E+00
   -6.2068983265E+00   -6.1962152008E+00   -6.1855687990E+00   -6.1749589300E+00
   -6.1643853498E+00   -6.1538479081E+00   -6.1433464410E+00   -6.1328807663E+00
   -6.1224507018E+00   -6.1120560652E+00   -6.1016966742E+00   -6.0913722949E+00
   -6.0810827849E+00   -6.0708279885E+00   -6.0606077317E+00   -6.0504218410E+00
   -6.0402701425E+00   -6.0301524624E+00   -6.0200685820E+00   -6.0100183547E+00
   -6.0000016377E+00   -5.9900182655E+00
  </PP_LOCAL>
 <PP_NONLOCAL>
   <PP_BETA.1
       type="real"
       size=" 602"
       columns="4"
       index="1"
       angular_momentum="0"
       cutoff_radius_index=" 248"
       cutoff_radius="    2.4700000000E+00" >
    0.0000000000E+00    5.7606332615E-02    1.1512130018E-01    1.7245371435E-01
    2.2951273983E-01    2.8620806993E-01    3.4245010095E-01    3.9815010510E-01
    4.5322040142E-01    5.0757452451E-01    5.6112739059E-01    6.1379546051E-01
    6.6549689954E-01    7.1615173338E-01    7.6568200016E-01    8.1401189821E-01
    8.6106792902E-01    9.0677903551E-01    9.5107673486E-01    9.9389524600E-01
    1.0351716112E+00    1.0748458122E+00    1.1128608791E+00    1.1491629941E+00
    1.1837015876E+00    1.2164294284E+00    1.2473027058E+00    1.2762811060E+00
    1.3033278803E+00    1.3284099058E+00    1.3514977399E+00    1.3725656659E+00
    1.3915917313E+00    1.4085577798E+00    1.4234494732E+00    1.4362563078E+00
    1.4469716219E+00    1.4555925961E+00    1.4621202452E+00    1.4665594034E+00
    1.4689187017E+00    1.4692105368E+00    1.4674510338E+00    1.4636600008E+00
    1.4578608764E+00    1.4500806699E+00    1.4403498947E+00    1.4287024956E+00
    1.4151757669E+00    1.3998102654E+00    1.3826497176E+00    1.3637409241E+00
    1.3431336442E+00    1.3208804910E+00    1.2970368211E+00    1.2716605881E+00
    1.2448122516E+00    1.2165545983E+00    1.1869526584E+00    1.1560735006E+00
    1.1239861567E+00    1.0907613999E+00    1.0564716424E+00    1.0211907731E+00
    9.8499394979E-01    9.4795749699E-01    9.1015873051E-01    8.7167572732E-01
    8.3258722644E-01    7.9297244505E-01    7.5291090227E-01    7.1248219837E-01
    6.7176590559E-01    6.3084137325E-01    5.8978755442E-01    5.4868284472E-01
    5.0760489333E-01    4.6663041574E-01    4.2583506776E-01    3.8529326329E-01
    3.4507801181E-01    3.0526075887E-01    2.6591123031E-01    2.2709728042E-01
    1.8888474440E-01    1.5133729565E-01    1.1451630825E-01    7.8480724918E-02
    4.3286930986E-02    8.9886346902E-03   -2.4363245771E-02   -5.6720688057E-02