<UPF version="2.0.1">
  <PP_INFO>

 This pseudopotential file has been produced using the code
 ONCVPSP  (Optimized Norm-Conservinng Vanderbilt PSeudopotential)
 scalar-relativistic version 2.1.1, 03/26/2014 by D. R. Hamann
 The code is available through a link at URL www.mat-simresearch.com.
 Documentation with the package provides a full discription of the
 input data below.


 While it is not required under the terms of the GNU GPL, it is
 suggested that you cite D. R. Hamann, Phys. Rev. B 88, 085117 (2013)
 in any publication using these pseudopotentials.


 Copyright 2015 The Regents of the University of California
 
 This work is licensed under the Creative Commons Attribution-ShareAlike 
 4.0 International License. To view a copy of this license, visit 
 http://creativecommons.org/licenses/by-sa/4.0/ or send a letter to 
 Creative Commons, PO Box 1866, Mountain View, CA 94042, USA.
 
 This pseudopotential is part of the Schlipf-Gygi norm-conserving 
 pseudopotential library. Its construction parameters were tuned to 
 reproduce materials of a training set with very high accuracy and 
 should be suitable as a general purpose pseudopotential to treat a 
 variety of different compounds. For details of the construction and 
 testing of the pseudopotential please refer to:
 
 [insert reference to paper here]
 
 We kindly ask that you include this reference in all publications 
 associated to this pseudopotential.


    <PP_INPUTFILE>
# ATOM AND REFERENCE CONFIGURATION
# atsym  z    nc    nv    iexc   psfile
  Rh 45.00     6     4     4      upf
#
#   n    l    f        energy (Ha)
    1    0    2.00
    2    0    2.00
    2    1    6.00
    3    0    2.00
    3    1    6.00
    3    2   10.00
    4    0    2.00
    4    1    6.00
    5    0    2.00
    4    2    7.00
#
# PSEUDOPOTENTIAL AND OPTIMIZATION
# lmax
    2
#
#   l,   rc,     ep,   ncon, nbas, qcut
    0   2.40816  -3.16433    5    8   5.70251
    1   2.55616  -1.97988    5    8   5.59007
    2   2.58683  -0.31897    5    8   5.53303
#
# LOCAL POTENTIAL
# lloc, lpopt,  rc(5),   dvloc0
    4    5   1.53047      0.00000
#
# VANDERBILT-KLEINMAN-BYLANDER PROJECTORs
# l, nproj, debl
    0    2   2.96888
    1    2   1.93145
    2    2   1.61536
#
# MODEL CORE CHARGE
# icmod, fcfact
    0   0.00000
#
# LOG DERIVATIVE ANALYSIS
# epsh1, epsh2, depsh
   -5.00    3.00    0.02
#
# OUTPUT GRID
# rlmax, drl
    6.00    0.01
#
# TEST CONFIGURATIONS
# ncnf
    0
# nvcnf
#   n    l    f
    </PP_INPUTFILE>
  </PP_INFO>
  <!--                               -->
  <!-- END OF HUMAN READABLE SECTION -->
  <!--                               -->
    <PP_HEADER
       generated="Generated using ONCVPSP code by D. R. Hamann"
       author="Martin Schlipf and Francois Gygi"
       date="150105"
       comment=""
       element="Rh"
       pseudo_type="NC"
       relativistic="scalar"
       is_ultrasoft="F"
       is_paw="F"
       is_coulomb="F"
       has_so="F"
       has_wfc="F"
       has_gipaw="F"
       core_correction="F"
       functional="PBE"
       z_valence="   17.00"
       total_psenergy="  -1.08196124254E+02"
       rho_cutoff="   6.01000000000E+00"
       l_max="2"
       l_local="-1"
       mesh_size="   602"
       number_of_wfc="0"
       number_of_proj="6"/>
 <PP_MESH>
   <PP_R type="real"  size=" 602" columns="8">
    0.0000    0.0100    0.0200    0.0300    0.0400    0.0500    0.0600    0.0700
    0.0800    0.0900    0.1000    0.1100    0.1200    0.1300    0.1400    0.1500
    0.1600    0.1700    0.1800    0.1900    0.2000    0.2100    0.2200    0.2300
    0.2400    0.2500    0.2600    0.2700    0.2800    0.2900    0.3000    0.3100
    0.3200    0.3300    0.3400    0.3500    0.3600    0.3700    0.3800    0.3900
    0.4000    0.4100    0.4200    0.4300    0.4400    0.4500    0.4600    0.4700
    0.4800    0.4900    0.5000    0.5100    0.5200    0.5300    0.5400    0.5500
    0.5600    0.5700    0.5800    0.5900    0.6000    0.6100    0.6200    0.6300
    0.6400    0.6500    0.6600    0.6700    0.6800    0.6900    0.7000    0.7100
    0.7200    0.7300    0.7400    0.7500    0.7600    0.7700    0.7800    0.7900
    0.8000    0.8100    0.8200    0.8300    0.8400    0.8500    0.8600    0.8700
    0.8800    0.8900    0.9000    0.9100    0.9200    0.9300    0.9400    0.9500
    0.9600    0.9700    0.9800    0.9900    1.0000    1.0100    1.0200    1.0300
    1.0400    1.0500    1.0600    1.0700    1.0800    1.0900    1.1000    1.1100
    1.1200    1.1300    1.1400    1.1500    1.1600    1.1700    1.1800    1.1900
    1.2000    1.2100    1.2200    1.2300    1.2400    1.2500    1.2600    1.2700
    1.2800    1.2900    1.3000    1.3100    1.3200    1.3300    1.3400    1.3500
    1.3600    1.3700    1.3800    1.3900    1.4000    1.4100    1.4200    1.4300
    1.4400    1.4500    1.4600    1.4700    1.4800    1.4900    1.5000    1.5100
    1.5200    1.5300    1.5400    1.5500    1.5600    1.5700    1.5800    1.5900
    1.6000    1.6100    1.6200    1.6300    1.6400    1.6500    1.6600    1.6700
    1.6800    1.6900    1.7000    1.7100    1.7200    1.7300    1.7400    1.7500
    1.7600    1.7700    1.7800    1.7900    1.8000    1.8100    1.8200    1.8300
    1.8400    1.8500    1.8600    1.8700    1.8800    1.8900    1.9000    1.9100
    1.9200    1.9300    1.9400    1.9500    1.9600    1.9700    1.9800    1.9900
    2.0000    2.0100    2.0200    2.0300    2.0400    2.0500    2.0600    2.0700
    2.0800    2.0900    2.1000    2.1100    2.1200    2.1300    2.1400    2.1500
    2.1600    2.1700    2.1800    2.1900    2.2000    2.2100    2.2200    2.2300
    2.2400    2.2500    2.2600    2.2700    2.2800    2.2900    2.3000    2.3100
    2.3200    2.3300    2.3400    2.3500    2.3600    2.3700    2.3800    2.3900
    2.4000    2.4100    2.4200    2.4300    2.4400    2.4500    2.4600    2.4700
    2.4800    2.4900    2.5000    2.5100    2.5200    2.5300    2.5400    2.5500
    2.5600    2.5700    2.5800    2.5900    2.6000    2.6100    2.6200    2.6300
    2.6400    2.6500    2.6600    2.6700    2.6800    2.6900    2.7000    2.7100
    2.7200    2.7300    2.7400    2.7500    2.7600    2.7700    2.7800    2.7900
    2.8000    2.8100    2.8200    2.8300    2.8400    2.8500    2.8600    2.8700
    2.8800    2.8900    2.9000    2.9100    2.9200    2.9300    2.9400    2.9500
    2.9600    2.9700    2.9800    2.9900    3.0000    3.0100    3.0200    3.0300
    3.0400    3.0500    3.0600    3.0700    3.0800    3.0900    3.1000    3.1100
    3.1200    3.1300    3.1400    3.1500    3.1600    3.1700    3.1800    3.1900
    3.2000    3.2100    3.2200    3.2300    3.2400    3.2500    3.2600    3.2700
    3.2800    3.2900    3.3000    3.3100    3.3200    3.3300    3.3400    3.3500
    3.3600    3.3700    3.3800    3.3900    3.4000    3.4100    3.4200    3.4300
    3.4400    3.4500    3.4600    3.4700    3.4800    3.4900    3.5000    3.5100
    3.5200    3.5300    3.5400    3.5500    3.5600    3.5700    3.5800    3.5900
    3.6000    3.6100    3.6200    3.6300    3.6400    3.6500    3.6600    3.6700
    3.6800    3.6900    3.7000    3.7100    3.7200    3.7300    3.7400    3.7500
    3.7600    3.7700    3.7800    3.7900    3.8000    3.8100    3.8200    3.8300
    3.8400    3.8500    3.8600    3.8700    3.8800    3.8900    3.9000    3.9100
    3.9200    3.9300    3.9400    3.9500    3.9600    3.9700    3.9800    3.9900
    4.0000    4.0100    4.0200    4.0300    4.0400    4.0500    4.0600    4.0700
    4.0800    4.0900    4.1000    4.1100    4.1200    4.1300    4.1400    4.1500
    4.1600    4.1700    4.1800    4.1900    4.2000    4.2100    4.2200    4.2300
    4.2400    4.2500    4.2600    4.2700    4.2800    4.2900    4.3000    4.3100
    4.3200    4.3300    4.3400    4.3500    4.3600    4.3700    4.3800    4.3900
    4.4000    4.4100    4.4200    4.4300    4.4400    4.4500    4.4600    4.4700
    4.4800    4.4900    4.5000    4.5100    4.5200    4.5300    4.5400    4.5500
    4.5600    4.5700    4.5800    4.5900    4.6000    4.6100    4.6200    4.6300
    4.6400    4.6500    4.6600    4.6700    4.6800    4.6900    4.7000    4.7100
    4.7200    4.7300    4.7400    4.7500    4.7600    4.7700    4.7800    4.7900
    4.8000    4.8100    4.8200    4.8300    4.8400    4.8500    4.8600    4.8700
    4.8800    4.8900    4.9000    4.9100    4.9200    4.9300    4.9400    4.9500
    4.9600    4.9700    4.9800    4.9900    5.0000    5.0100    5.0200    5.0300
    5.0400    5.0500    5.0600    5.0700    5.0800    5.0900    5.1000    5.1100
    5.1200    5.1300    5.1400    5.1500    5.1600    5.1700    5.1800    5.1900
    5.2000    5.2100    5.2200    5.2300    5.2400    5.2500    5.2600    5.2700
    5.2800    5.2900    5.3000    5.3100    5.3200    5.3300    5.3400    5.3500
    5.3600    5.3700    5.3800    5.3900    5.4000    5.4100    5.4200    5.4300
    5.4400    5.4500    5.4600    5.4700    5.4800    5.4900    5.5000    5.5100
    5.5200    5.5300    5.5400    5.5500    5.5600    5.5700    5.5800    5.5900
    5.6000    5.6100    5.6200    5.6300    5.6400    5.6500    5.6600    5.6700
    5.6800    5.6900    5.7000    5.7100    5.7200    5.7300    5.7400    5.7500
    5.7600    5.7700    5.7800    5.7900    5.8000    5.8100    5.8200    5.8300
    5.8400    5.8500    5.8600    5.8700    5.8800    5.8900    5.9000    5.9100
    5.9200    5.9300    5.9400    5.9500    5.9600    5.9700    5.9800    5.9900
    6.0000    6.0100
   </PP_R>
   <PP_RAB type="real"  size=" 602" columns="8">
    0.0100    0.0100    0.0100    0.0100    0.0100    0.0100    0.0100    0.0100
    0.0100    0.0100    0.0100    0.0100    0.0100    0.0100    0.0100    0.0100
    0.0100    0.0100    0.0100    0.0100    0.0100    0.0100    0.0100    0.0100
    0.0100    0.0100    0.0100    0.0100    0.0100    0.0100    0.0100    0.0100
    0.0100    0.0100    0.0100    0.0100    0.0100    0.0100    0.0100    0.0100
    0.0100    0.0100    0.0100    0.0100    0.0100    0.0100    0.0100    0.0100
    0.0100    0.0100    0.0100    0.0100    0.0100    0.0100    0.0100    0.0100
    0.0100    0.0100    0.0100    0.0100    0.0100    0.0100    0.0100    0.0100
    0.0100    0.0100    0.0100    0.0100    0.0100    0.0100    0.0100    0.0100
    0.0100    0.0100    0.0100    0.0100    0.0100    0.0100    0.0100    0.0100
    0.0100    0.0100    0.0100    0.0100    0.0100    0.0100    0.0100    0.0100
    0.0100    0.0100    0.0100    0.0100    0.0100    0.0100    0.0100    0.0100
    0.0100    0.0100    0.0100    0.0100    0.0100    0.0100    0.0100    0.0100
    0.0100    0.0100    0.0100    0.0100    0.0100    0.0100    0.0100    0.0100
    0.0100    0.0100    0.0100    0.0100    0.0100    0.0100    0.0100    0.0100
    0.0100    0.0100    0.0100    0.0100    0.0100    0.0100    0.0100    0.0100
    0.0100    0.0100    0.0100    0.0100    0.0100    0.0100    0.0100    0.0100
    0.0100    0.0100    0.0100    0.0100    0.0100    0.0100    0.0100    0.0100
    0.0100    0.0100    0.0100    0.0100    0.0100    0.0100    0.0100    0.0100
    0.0100    0.0100    0.0100    0.0100    0.0100    0.0100    0.0100    0.0100
    0.0100    0.0100    0.0100    0.0100    0.0100    0.0100    0.0100    0.0100
    0.0100    0.0100    0.0100    0.0100    0.0100    0.0100    0.0100    0.0100
    0.0100    0.0100    0.0100    0.0100    0.0100    0.0100    0.0100    0.0100
    0.0100    0.0100    0.0100    0.0100    0.0100    0.0100    0.0100    0.0100
    0.0100    0.0100    0.0100    0.0100    0.0100    0.0100    0.0100    0.0100
    0.0100    0.0100    0.0100    0.0100    0.0100    0.0100    0.0100    0.0100
    0.0100    0.0100    0.0100    0.0100    0.0100    0.0100    0.0100    0.0100
    0.0100    0.0100    0.0100    0.0100    0.0100    0.0100    0.0100    0.0100
    0.0100    0.0100    0.0100    0.0100    0.0100    0.0100    0.0100    0.0100
    0.0100    0.0100    0.0100    0.0100    0.0100    0.0100    0.0100    0.0100
    0.0100    0.0100    0.0100    0.0100    0.0100    0.0100    0.0100    0.0100
    0.0100    0.0100    0.0100    0.0100    0.0100    0.0100    0.0100    0.0100
    0.0100    0.0100    0.0100    0.0100    0.0100    0.0100    0.0100    0.0100
    0.0100    0.0100    0.0100    0.0100    0.0100    0.0100    0.0100    0.0100
    0.0100    0.0100    0.0100    0.0100    0.0100    0.0100    0.0100    0.0100
    0.0100    0.0100    0.0100    0.0100    0.0100    0.0100    0.0100    0.0100
    0.0100    0.0100    0.0100    0.0100    0.0100    0.0100    0.0100    0.0100
    0.0100    0.0100    0.0100    0.0100    0.0100    0.0100    0.0100    0.0100
    0.0100    0.0100    0.0100    0.0100    0.0100    0.0100    0.0100    0.0100
    0.0100    0.0100    0.0100    0.0100    0.0100    0.0100    0.0100    0.0100
    0.0100    0.0100    0.0100    0.0100    0.0100    0.0100    0.0100    0.0100
    0.0100    0.0100    0.0100    0.0100    0.0100    0.0100    0.0100    0.0100
    0.0100    0.0100    0.0100    0.0100    0.0100    0.0100    0.0100    0.0100
    0.0100    0.0100    0.0100    0.0100    0.0100    0.0100    0.0100    0.0100
    0.0100    0.0100    0.0100    0.0100    0.0100    0.0100    0.0100    0.0100
    0.0100    0.0100    0.0100    0.0100    0.0100    0.0100    0.0100    0.0100
    0.0100    0.0100    0.0100    0.0100    0.0100    0.0100    0.0100    0.0100
    0.0100    0.0100    0.0100    0.0100    0.0100    0.0100    0.0100    0.0100
    0.0100    0.0100    0.0100    0.0100    0.0100    0.0100    0.0100    0.0100
    0.0100    0.0100    0.0100    0.0100    0.0100    0.0100    0.0100    0.0100
    0.0100    0.0100    0.0100    0.0100    0.0100    0.0100    0.0100    0.0100
    0.0100    0.0100    0.0100    0.0100    0.0100    0.0100    0.0100    0.0100
    0.0100    0.0100    0.0100    0.0100    0.0100    0.0100    0.0100    0.0100
    0.0100    0.0100    0.0100    0.0100    0.0100    0.0100    0.0100    0.0100
    0.0100    0.0100    0.0100    0.0100    0.0100    0.0100    0.0100    0.0100
    0.0100    0.0100    0.0100    0.0100    0.0100    0.0100    0.0100    0.0100
    0.0100    0.0100    0.0100    0.0100    0.0100    0.0100    0.0100    0.0100
    0.0100    0.0100    0.0100    0.0100    0.0100    0.0100    0.0100    0.0100
    0.0100    0.0100    0.0100    0.0100    0.0100    0.0100    0.0100    0.0100
    0.0100    0.0100    0.0100    0.0100    0.0100    0.0100    0.0100    0.0100
    0.0100    0.0100    0.0100    0.0100    0.0100    0.0100    0.0100    0.0100
    0.0100    0.0100    0.0100    0.0100    0.0100    0.0100    0.0100    0.0100
    0.0100    0.0100    0.0100    0.0100    0.0100    0.0100    0.0100    0.0100
    0.0100    0.0100    0.0100    0.0100    0.0100    0.0100    0.0100    0.0100
    0.0100    0.0100    0.0100    0.0100    0.0100    0.0100    0.0100    0.0100
    0.0100    0.0100    0.0100    0.0100    0.0100    0.0100    0.0100    0.0100
    0.0100    0.0100    0.0100    0.0100    0.0100    0.0100    0.0100    0.0100
    0.0100    0.0100    0.0100    0.0100    0.0100    0.0100    0.0100    0.0100
    0.0100    0.0100    0.0100    0.0100    0.0100    0.0100    0.0100    0.0100
    0.0100    0.0100    0.0100    0.0100    0.0100    0.0100    0.0100    0.0100
    0.0100    0.0100    0.0100    0.0100    0.0100    0.0100    0.0100    0.0100
    0.0100    0.0100    0.0100    0.0100    0.0100    0.0100    0.0100    0.0100
    0.0100    0.0100    0.0100    0.0100    0.0100    0.0100    0.0100    0.0100
    0.0100    0.0100    0.0100    0.0100    0.0100    0.0100    0.0100    0.0100
    0.0100    0.0100    0.0100    0.0100    0.0100    0.0100    0.0100    0.0100
    0.0100    0.0100
   </PP_RAB>
 </PP_MESH>
  <PP_LOCAL type="real"  size=" 602" columns="4">
   -4.7490408966E+01   -4.7488681008E+01   -4.7483529493E+01   -4.7474918558E+01
   -4.7462812336E+01   -4.7447163945E+01   -4.7427918429E+01   -4.7405016081E+01
   -4.7378395834E+01   -4.7347998517E+01   -4.7313769729E+01   -4.7275662201E+01
   -4.7233637574E+01   -4.7187667537E+01   -4.7137734394E+01   -4.7083831091E+01
   -4.7025960824E+01   -4.6964136308E+01   -4.6898378818E+01   -4.6828717093E+01
   -4.6755186187E+01   -4.6677826318E+01   -4.6596681779E+01   -4.6511799933E+01
   -4.6423230310E+01   -4.6331023834E+01   -4.6235232154E+01   -4.6135907098E+01
   -4.6033100229E+01   -4.5926862500E+01   -4.5817243992E+01   -4.5704293724E+01
   -4.5588059528E+01   -4.5468587971E+01   -4.5345924323E+01   -4.5220112563E+01
   -4.5091195402E+01   -4.4959214339E+01   -4.4824209731E+01   -4.4686220871E+01
   -4.4545286081E+01   -4.4401442815E+01   -4.4254727760E+01   -4.4105176944E+01
   -4.3952825851E+01   -4.3797709530E+01   -4.3639862713E+01   -4.3479319924E+01
   -4.3316115594E+01   -4.3150284177E+01   -4.2981860257E+01   -4.2810878661E+01
   -4.2637374564E+01   -4.2461383605E+01   -4.2282941973E+01   -4.2102086526E+01
   -4.1918854873E+01   -4.1733285477E+01   -4.1545417735E+01   -4.1355292078E+01
   -4.1162950015E+01   -4.0968434261E+01   -4.0771788734E+01   -4.0573058679E+01
   -4.0372290692E+01   -4.0169532736E+01   -3.9964834241E+01   -3.9758246098E+01
   -3.9549820673E+01   -3.9339611807E+01   -3.9127674894E+01   -3.8914066807E+01
   -3.8698845908E+01   -3.8482072027E+01   -3.8263806430E+01   -3.8044111811E+01
   -3.7823052239E+01   -3.7600693099E+01   -3.7377101051E+01   -3.7152343965E+01
   -3.6926490869E+01   -3.6699611869E+01   -3.6471778091E+01   -3.6243061597E+01
   -3.6013535313E+01   -3.5783272949E+01   -3.5552348914E+01   -3.5320838239E+01
   -3.5088816491E+01   -3.4856359686E+01   -3.4623544208E+01   -3.4390446721E+01
   -3.4157144088E+01   -3.3923713283E+01   -3.3690231310E+01   -3.3456775117E+01
   -3.3223421527E+01   -3.2990247137E+01   -3.2757328244E+01   -3.2524740768E+01
   -3.2292560173E+01   -3.2060861389E+01   -3.1829718741E+01   -3.1599205917E+01
   -3.1369395749E+01   -3.1140360273E+01   -3.0912170612E+01   -3.0684896916E+01
   -3.0458608400E+01   -3.0233372929E+01   -3.0009257261E+01   -2.9786326891E+01
   -2.9564646127E+01   -2.9344277665E+01   -2.9125282701E+01   -2.8907720950E+01
   -2.8691650784E+01   -2.8477128435E+01   -2.8264208487E+01   -2.8052943904E+01
   -2.7843385819E+01   -2.7635582901E+01   -2.7429582090E+01   -2.7225428789E+01
   -2.7023165152E+01   -2.6822831582E+01   -2.6624466903E+01   -2.6428106342E+01
   -2.6233783136E+01   -2.6041529019E+01   -2.5851371526E+01   -2.5663336362E+01
   -2.5477447440E+01   -2.5293724058E+01   -2.5112184159E+01   -2.4932842783E+01
   -2.4755710799E+01   -2.4580798149E+01   -2.4408109978E+01   -2.4237648906E+01
   -2.4069415846E+01   -2.3903405933E+01   -2.3739614000E+01   -2.3578029683E+01
   -2.3418639993E+01   -2.3261430017E+01   -2.3106378801E+01   -2.2953466015E+01
   -2.2802664126E+01   -2.2653945402E+01   -2.2507277445E+01   -2.2362624564E+01
   -2.2219949429E+01   -2.2079208852E+01   -2.1940359616E+01   -2.1803355809E+01
   -2.1668151834E+01   -2.1534704314E+01   -2.1402969641E+01   -2.1272906379E+01
   -2.1144473378E+01   -2.1017631158E+01   -2.0892341154E+01   -2.0768565983E+01
   -2.0646269734E+01   -2.0525417259E+01   -2.0405975309E+01   -2.0287911080E+01
   -2.0171193919E+01   -2.0055793447E+01   -1.9941681463E+01   -1.9828830039E+01
   -1.9717213221E+01   -1.9606805506E+01   -1.9497582930E+01   -1.9389522302E+01
   -1.9282601378E+01   -1.9176799104E+01   -1.9072094690E+01   -1.8968468957E+01
   -1.8865902338E+01   -1.8764377216E+01   -1.8663875052E+01   -1.8564379438E+01
   -1.8465872779E+01   -1.8368339412E+01   -1.8271762820E+01   -1.8176127640E+01
   -1.8081418298E+01   -1.7987619700E+01   -1.7894717054E+01   -1.7802695498E+01
   -1.7711541022E+01   -1.7621238911E+01   -1.7531775918E+01   -1.7443137921E+01
   -1.7355312023E+01   -1.7268285162E+01   -1.7182044592E+01   -1.7096578772E+01
   -1.7011874903E+01   -1.6927922950E+01   -1.6844711303E+01   -1.6762230177E+01
   -1.6680470105E+01   -1.6599421132E+01   -1.6519075943E+01   -1.6439425339E+01
   -1.6360462760E+01   -1.6282181232E+01   -1.6204573778E+01   -1.6127635533E+01
   -1.6051360062E+01   -1.5975743021E+01   -1.5900779747E+01   -1.5826465426E+01
   -1.5752796579E+01   -1.5679768967E+01   -1.5607378982E+01   -1.5535623105E+01
   -1.5464497694E+01   -1.5393999135E+01   -1.5324123959E+01   -1.5254868423E+01
   -1.5186228451E+01   -1.5118200588E+01   -1.5050780165E+01   -1.4983962749E+01
   -1.4917744360E+01   -1.4852119303E+01   -1.4787082846E+01   -1.4722629789E+01
   -1.4658753866E+01   -1.4595449819E+01   -1.4532711234E+01   -1.4470531399E+01
   -1.4408904436E+01   -1.4347823017E+01   -1.4287280107E+01   -1.4227269132E+01
   -1.4167782359E+01   -1.4108812513E+01   -1.4050352375E+01   -1.3992394287E+01
   -1.3934930731E+01   -1.3877954204E+01   -1.3821457367E+01   -1.3765432646E+01
   -1.3709872637E+01   -1.3654770520E+01   -1.3600118905E+01   -1.3545910778E+01
   -1.3492139965E+01   -1.3438799462E+01   -1.3385882791E+01   -1.3333384597E+01
   -1.3281298518E+01   -1.3229618666E+01   -1.3178340549E+01   -1.3127458654E+01
   -1.3076967653E+01   -1.3026863747E+01   -1.2977142344E+01   -1.2927798761E+01
   -1.2878829128E+01   -1.2830229216E+01   -1.2781994637E+01   -1.2734121528E+01
   -1.2686605824E+01   -1.2639443163E+01   -1.2592629922E+01   -1.2546162288E+01
   -1.2500036205E+01   -1.2454248039E+01   -1.2408794213E+01   -1.2363670926E+01
   -1.2318874527E+01   -1.2274401682E+01   -1.2230248851E+01   -1.2186412341E+01
   -1.2142889053E+01   -1.2099675648E+01   -1.2056768565E+01   -1.2014164742E+01
   -1.1971861053E+01   -1.1929854198E+01   -1.1888141005E+01   -1.1846718598E+01
   -1.1805583942E+01   -1.1764733743E+01   -1.1724165359E+01   -1.1683875894E+01
   -1.1643862310E+01   -1.1604121805E+01   -1.1564651739E+01   -1.1525449340E+01
   -1.1486511631E+01   -1.1447836212E+01   -1.1409420453E+01   -1.1371261591E+01
   -1.1333357060E+01   -1.1295704476E+01   -1.1258301328E+01   -1.1221144888E+01
   -1.1184232954E+01   -1.1147563153E+01   -1.1111133018E+01   -1.1074940096E+01
   -1.1038982272E+01   -1.1003257267E+01   -1.0967762649E+01   -1.0932496266E+01
   -1.0897456029E+01   -1.0862639764E+01   -1.0828045092E+01   -1.0793670116E+01
   -1.0759512781E+01   -1.0725570977E+01   -1.0691842499E+01   -1.0658325552E+01
   -1.0625018162E+01   -1.0591918269E+01   -1.0559023871E+01   -1.0526333223E+01
   -1.0493844438E+01   -1.0461555523E+01   -1.0429464643E+01   -1.0397570104E+01
   -1.0365870111E+01   -1.0334362737E+01   -1.0303046285E+01   -1.0271919122E+01
   -1.0240979535E+01   -1.0210225673E+01   -1.0179655948E+01   -1.0149268793E+01
   -1.0119062574E+01   -1.0089035521E+01   -1.0059186127E+01   -1.0029512897E+01
   -1.0000014275E+01   -9.9706885745E+00   -9.9415343451E+00   -9.9125501703E+00
   -9.8837345653E+00   -9.8550859368E+00   -9.8266028647E+00   -9.7982840162E+00
   -9.7701279760E+00   -9.7421332465E+00   -9.7142984172E+00   -9.6866222437E+00
   -9.6591033765E+00   -9.6317404190E+00   -9.6045319501E+00   -9.5774768168E+00
   -9.5505737327E+00   -9.5238214072E+00   -9.4972183906E+00   -9.4707636235E+00
   -9.4444558793E+00   -9.4182939315E+00   -9.3922764265E+00   -9.3664022594E+00
   -9.3406703072E+00   -9.3150794002E+00   -9.2896283000E+00   -9.2643158260E+00
   -9.2391409643E+00   -9.2141026000E+00   -9.1891996155E+00   -9.1644307408E+00
   -9.1397950704E+00   -9.1152915411E+00   -9.0909190900E+00   -9.0666765606E+00
   -9.0425629418E+00   -9.0185772891E+00   -8.9947185892E+00   -8.9709858152E+00
   -8.9473778289E+00   -8.9238938050E+00   -8.9005327774E+00   -8.8772937796E+00
   -8.8541757625E+00   -8.8311777939E+00   -8.8082990246E+00   -8.7855385336E+00
   -8.7628953994E+00   -8.7403685632E+00   -8.7179572705E+00   -8.6956606531E+00
   -8.6734778328E+00   -8.6514078899E+00   -8.6294498924E+00   -8.6076031085E+00
   -8.5858667007E+00   -8.5642398317E+00   -8.5427215826E+00   -8.5213111556E+00
   -8.5000078155E+00   -8.4788107638E+00   -8.4577192022E+00   -8.4367322218E+00
   -8.4158491343E+00   -8.3950692079E+00   -8.3743916813E+00   -8.3538157933E+00
   -8.3333406529E+00   -8.3129656581E+00   -8.2926900875E+00   -8.2725132154E+00
   -8.2524343047E+00   -8.2324525233E+00   -8.2125672993E+00   -8.1927779408E+00
   -8.1730837558E+00   -8.1534840339E+00   -8.1339779952E+00   -8.1145650905E+00
   -8.0952446603E+00   -8.0760160448E+00   -8.0568785663E+00   -8.0378314788E+00
   -8.0188742614E+00   -8.0000062853E+00   -7.9812269215E+00   -7.9625355313E+00
   -7.9439313845E+00   -7.9254139941E+00   -7.9069827607E+00   -7.8886370845E+00
   -7.8703763660E+00   -7.8521998914E+00   -7.8341071956E+00   -7.8160977125E+00
   -7.7981708706E+00   -7.7803260982E+00   -7.7625627326E+00   -7.7448802851E+00
   -7.7272782387E+00   -7.7097560483E+00   -7.6923131687E+00   -7.6749489940E+00
   -7.6576629971E+00   -7.6404547141E+00   -7.6233236254E+00   -7.6062692113E+00
   -7.5892909278E+00   -7.5723881957E+00   -7.5555606082E+00   -7.5388076698E+00
   -7.5221288851E+00   -7.5055237586E+00   -7.4889917028E+00   -7.4725323151E+00
   -7.4561451414E+00   -7.4398297093E+00   -7.4235855464E+00   -7.4074121365E+00
   -7.3913089947E+00   -7.3752757354E+00   -7.3593119083E+00   -7.3434170631E+00
   -7.3275907495E+00   -7.3118324231E+00   -7.2961417351E+00   -7.2805182669E+00
   -7.2649615892E+00   -7.2494712728E+00   -7.2340468538E+00   -7.2186878743E+00
   -7.2033939940E+00   -7.1881648037E+00   -7.1729998938E+00   -7.1578988552E+00
   -7.1428612086E+00   -7.1278865960E+00   -7.1129746584E+00   -7.0981250055E+00
   -7.0833372470E+00   -7.0686109928E+00   -7.0539457565E+00   -7.0393412602E+00
   -7.0247971331E+00   -7.0103130030E+00   -6.9958884978E+00   -6.9815232243E+00
   -6.9672167601E+00   -6.9529688252E+00   -6.9387790650E+00   -6.9246471245E+00
   -6.9105726491E+00   -6.8965552485E+00   -6.8825945506E+00   -6.8686902758E+00
   -6.8548420859E+00   -6.8410496428E+00   -6.8273126081E+00   -6.8136306008E+00
   -6.8000032831E+00   -6.7864303820E+00   -6.7729115748E+00   -6.7594465393E+00
   -6.7460349528E+00   -6.7326764496E+00   -6.7193707107E+00   -6.7061174755E+00
   -6.6929164364E+00   -6.6797672860E+00   -6.6666697169E+00   -6.6536233840E+00
   -6.6406279730E+00   -6.6276832411E+00   -6.6147888951E+00   -6.6019446419E+00
   -6.5891501884E+00   -6.5764052155E+00   -6.5637094003E+00   -6.5510625228E+00
   -6.5384643036E+00   -6.5259144633E+00   -6.5134127224E+00   -6.5009587930E+00
   -6.4885523307E+00   -6.4761931435E+00   -6.4638809648E+00   -6.4516155283E+00
   -6.4393965674E+00   -6.4272238159E+00   -6.4150969401E+00   -6.4030157363E+00
   -6.3909799648E+00   -6.3789893715E+00   -6.3670437025E+00   -6.3551427036E+00
   -6.3432860829E+00   -6.3314735878E+00   -6.3197050180E+00   -6.3079801312E+00
   -6.2962986854E+00   -6.2846604383E+00   -6.2730651439E+00   -6.2615124912E+00
   -6.2500023221E+00   -6.2385344058E+00   -6.2271085114E+00   -6.2157244081E+00
   -6.2043818648E+00   -6.1930806091E+00   -6.1818204225E+00   -6.1706011197E+00
   -6.1594224805E+00   -6.1482842847E+00   -6.1371863122E+00   -6.1261283428E+00
   -6.1151100856E+00   -6.1041313981E+00   -6.0931920732E+00   -6.0822919010E+00
   -6.0714306716E+00   -6.0606081751E+00   -6.0498241795E+00   -6.0390784493E+00
   -6.0283708349E+00   -6.0177011361E+00   -6.0070691528E+00   -5.9964746849E+00
   -5.9859175323E+00   -5.9753974549E+00   -5.9649142665E+00   -5.9544678074E+00
   -5.9440578867E+00   -5.9336843138E+00   -5.9233468979E+00   -5.9130454481E+00
   -5.9027797224E+00   -5.8925495697E+00   -5.8823548260E+00   -5.8721953094E+00
   -5.8620708381E+00   -5.8519812301E+00   -5.8419263036E+00   -5.8319058202E+00
   -5.8219196504E+00   -5.8119676317E+00   -5.8020495907E+00   -5.7921653539E+00
   -5.7823147480E+00   -5.7724975995E+00   -5.7627136791E+00   -5.7529628661E+00
   -5.7432450050E+00   -5.7335599305E+00   -5.7239074773E+00   -5.7142874799E+00
   -5.7046997730E+00   -5.6951441411E+00   -5.6856204607E+00   -5.6761285884E+00
   -5.6666683666E+00   -5.6572396374E+00
  </PP_LOCAL>
 <PP_NONLOCAL>
   <PP_BETA.1
       type="real"
       size=" 602"
       columns="4"
       index="1"
       angular_momentum="0"
       cutoff_radius_index=" 262"
       cutoff_radius="    2.6100000000E+00" >
    0.0000000000E+00   -5.3263223631E-02   -1.0645147008E-01   -1.5948987165E-01
   -2.1230377954E-01   -2.6481887299E-01   -3.1696126811E-01   -3.6865762634E-01
   -4.1983526225E-01   -4.7042225079E-01   -5.2034753370E-01   -5.6954102510E-01
   -6.1793371608E-01   -6.6545777812E-01   -7.1204666541E-01   -7.5763521579E-01
   -8.0215975020E-01   -8.4555817065E-01   -8.8777005646E-01   -9.2873675879E-01
   -9.6840149302E-01   -1.0067094295E+00   -1.0436077817E+00   -1.0790458923E+00
   -1.1129753170E+00   -1.1453499055E+00   -1.1761258796E+00   -1.2052619096E+00
   -1.2327191864E+00   -1.2584614912E+00   -1.2824552620E+00   -1.3046696566E+00
   -1.3250766120E+00   -1.3436509008E+00   -1.3603701829E+00   -1.3752150534E+00
   -1.3881690880E+00   -1.3992188817E+00   -1.4083540843E+00   -1.4155674328E+00
   -1.4208547770E+00   -1.4242151007E+00   -1.4256505391E+00   -1.4251663903E+00
   -1.4227711218E+00   -1.4184763714E+00   -1.4122969432E+00   -1.4042507973E+00
   -1.3943590340E+00   -1.3826458739E+00   -1.3691386287E+00   -1.3538676686E+00
   -1.3368663836E+00   -1.3181711366E+00   -1.2978212136E+00   -1.2758587630E+00
   -1.2523287347E+00   -1.2272788060E+00   -1.2007593087E+00   -1.1728231397E+00
   -1.1435256837E+00   -1.1129246960E+00   -1.0810802307E+00   -1.0480545034E+00
   -1.0139117895E+00   -9.7871832227E-01   -9.4254213285E-01   -9.0545293662E-01
   -8.6752200383E-01   -8.2882203293E-01   -7.8942694460E-01   -7.4941178613E-01
   -7.0885256213E-01   -6.6782607462E-01   -6.2640977323E-01   -5.8468155867E-01
   -5.4271962345E-01   -5.0060229710E-01   -4.5840786355E-01   -4.1621438567E-01
   -3.7409952878E-01   -3.3214038327E-01   -2.9041328714E-01   -2.4899364861E-01
   -2.0795576968E-01   -1.6737267078E-01   -1.2731591740E-01   -8.7855448900E-02
   -4.9059410336E-02   -1.0993987681E-02    2.6276752914E-02    6.2691021250E-02