<UPF version="2.0.1">
  <PP_INFO>

 This pseudopotential file has been produced using the code
 ONCVPSP  (Optimized Norm-Conservinng Vanderbilt PSeudopotential)
 scalar-relativistic version 2.1.1, 03/26/2014 by D. R. Hamann
 The code is available through a link at URL www.mat-simresearch.com.
 Documentation with the package provides a full discription of the
 input data below.


 While it is not required under the terms of the GNU GPL, it is
 suggested that you cite D. R. Hamann, Phys. Rev. B 88, 085117 (2013)
 in any publication using these pseudopotentials.


 Copyright 2015 The Regents of the University of California
 
 This work is licensed under the Creative Commons Attribution-ShareAlike 
 4.0 International License. To view a copy of this license, visit 
 http://creativecommons.org/licenses/by-sa/4.0/ or send a letter to 
 Creative Commons, PO Box 1866, Mountain View, CA 94042, USA.
 
 This pseudopotential is part of the Schlipf-Gygi norm-conserving 
 pseudopotential library. Its construction parameters were tuned to 
 reproduce materials of a training set with very high accuracy and 
 should be suitable as a general purpose pseudopotential to treat a 
 variety of different compounds. For details of the construction and 
 testing of the pseudopotential please refer to:
 
 [insert reference to paper here]
 
 We kindly ask that you include this reference in all publications 
 associated to this pseudopotential.


    <PP_INPUTFILE>
# ATOM AND REFERENCE CONFIGURATION
# atsym  z    nc    nv    iexc   psfile
  Ru 44.00     6     4     4      upf
#
#   n    l    f        energy (Ha)
    1    0    2.00
    2    0    2.00
    2    1    6.00
    3    0    2.00
    3    1    6.00
    3    2   10.00
    4    0    2.00
    4    1    6.00
    5    0    2.00
    4    2    6.00
#
# PSEUDOPOTENTIAL AND OPTIMIZATION
# lmax
    2
#
#   l,   rc,     ep,   ncon, nbas, qcut
    0   2.58325  -2.92914    5    8   5.63432
    1   2.52236  -1.82267    5    8   5.80226
    2   2.61425  -0.28187    5    8   5.77581
#
# LOCAL POTENTIAL
# lloc, lpopt,  rc(5),   dvloc0
    4    5   1.52836      0.00000
#
# VANDERBILT-KLEINMAN-BYLANDER PROJECTORs
# l, nproj, debl
    0    2   2.73849
    1    2   2.00836
    2    2   1.58175
#
# MODEL CORE CHARGE
# icmod, fcfact
    0   0.00000
#
# LOG DERIVATIVE ANALYSIS
# epsh1, epsh2, depsh
   -5.00    3.00    0.02
#
# OUTPUT GRID
# rlmax, drl
    6.00    0.01
#
# TEST CONFIGURATIONS
# ncnf
    0
# nvcnf
#   n    l    f
    </PP_INPUTFILE>
  </PP_INFO>
  <!--                               -->
  <!-- END OF HUMAN READABLE SECTION -->
  <!--                               -->
    <PP_HEADER
       generated="Generated using ONCVPSP code by D. R. Hamann"
       author="Martin Schlipf and Francois Gygi"
       date="150105"
       comment=""
       element="Ru"
       pseudo_type="NC"
       relativistic="scalar"
       is_ultrasoft="F"
       is_paw="F"
       is_coulomb="F"
       has_so="F"
       has_wfc="F"
       has_gipaw="F"
       core_correction="F"
       functional="PBE"
       z_valence="   16.00"
       total_psenergy="  -9.39281521848E+01"
       rho_cutoff="   6.01000000000E+00"
       l_max="2"
       l_local="-1"
       mesh_size="   602"
       number_of_wfc="0"
       number_of_proj="6"/>
 <PP_MESH>
   <PP_R type="real"  size=" 602" columns="8">
    0.0000    0.0100    0.0200    0.0300    0.0400    0.0500    0.0600    0.0700
    0.0800    0.0900    0.1000    0.1100    0.1200    0.1300    0.1400    0.1500
    0.1600    0.1700    0.1800    0.1900    0.2000    0.2100    0.2200    0.2300
    0.2400    0.2500    0.2600    0.2700    0.2800    0.2900    0.3000    0.3100
    0.3200    0.3300    0.3400    0.3500    0.3600    0.3700    0.3800    0.3900
    0.4000    0.4100    0.4200    0.4300    0.4400    0.4500    0.4600    0.4700
    0.4800    0.4900    0.5000    0.5100    0.5200    0.5300    0.5400    0.5500
    0.5600    0.5700    0.5800    0.5900    0.6000    0.6100    0.6200    0.6300
    0.6400    0.6500    0.6600    0.6700    0.6800    0.6900    0.7000    0.7100
    0.7200    0.7300    0.7400    0.7500    0.7600    0.7700    0.7800    0.7900
    0.8000    0.8100    0.8200    0.8300    0.8400    0.8500    0.8600    0.8700
    0.8800    0.8900    0.9000    0.9100    0.9200    0.9300    0.9400    0.9500
    0.9600    0.9700    0.9800    0.9900    1.0000    1.0100    1.0200    1.0300
    1.0400    1.0500    1.0600    1.0700    1.0800    1.0900    1.1000    1.1100
    1.1200    1.1300    1.1400    1.1500    1.1600    1.1700    1.1800    1.1900
    1.2000    1.2100    1.2200    1.2300    1.2400    1.2500    1.2600    1.2700
    1.2800    1.2900    1.3000    1.3100    1.3200    1.3300    1.3400    1.3500
    1.3600    1.3700    1.3800    1.3900    1.4000    1.4100    1.4200    1.4300
    1.4400    1.4500    1.4600    1.4700    1.4800    1.4900    1.5000    1.5100
    1.5200    1.5300    1.5400    1.5500    1.5600    1.5700    1.5800    1.5900
    1.6000    1.6100    1.6200    1.6300    1.6400    1.6500    1.6600    1.6700
    1.6800    1.6900    1.7000    1.7100    1.7200    1.7300    1.7400    1.7500
    1.7600    1.7700    1.7800    1.7900    1.8000    1.8100    1.8200    1.8300
    1.8400    1.8500    1.8600    1.8700    1.8800    1.8900    1.9000    1.9100
    1.9200    1.9300    1.9400    1.9500    1.9600    1.9700    1.9800    1.9900
    2.0000    2.0100    2.0200    2.0300    2.0400    2.0500    2.0600    2.0700
    2.0800    2.0900    2.1000    2.1100    2.1200    2.1300    2.1400    2.1500
    2.1600    2.1700    2.1800    2.1900    2.2000    2.2100    2.2200    2.2300
    2.2400    2.2500    2.2600    2.2700    2.2800    2.2900    2.3000    2.3100
    2.3200    2.3300    2.3400    2.3500    2.3600    2.3700    2.3800    2.3900
    2.4000    2.4100    2.4200    2.4300    2.4400    2.4500    2.4600    2.4700
    2.4800    2.4900    2.5000    2.5100    2.5200    2.5300    2.5400    2.5500
    2.5600    2.5700    2.5800    2.5900    2.6000    2.6100    2.6200    2.6300
    2.6400    2.6500    2.6600    2.6700    2.6800    2.6900    2.7000    2.7100
    2.7200    2.7300    2.7400    2.7500    2.7600    2.7700    2.7800    2.7900
    2.8000    2.8100    2.8200    2.8300    2.8400    2.8500    2.8600    2.8700
    2.8800    2.8900    2.9000    2.9100    2.9200    2.9300    2.9400    2.9500
    2.9600    2.9700    2.9800    2.9900    3.0000    3.0100    3.0200    3.0300
    3.0400    3.0500    3.0600    3.0700    3.0800    3.0900    3.1000    3.1100
    3.1200    3.1300    3.1400    3.1500    3.1600    3.1700    3.1800    3.1900
    3.2000    3.2100    3.2200    3.2300    3.2400    3.2500    3.2600    3.2700
    3.2800    3.2900    3.3000    3.3100    3.3200    3.3300    3.3400    3.3500
    3.3600    3.3700    3.3800    3.3900    3.4000    3.4100    3.4200    3.4300
    3.4400    3.4500    3.4600    3.4700    3.4800    3.4900    3.5000    3.5100
    3.5200    3.5300    3.5400    3.5500    3.5600    3.5700    3.5800    3.5900
    3.6000    3.6100    3.6200    3.6300    3.6400    3.6500    3.6600    3.6700
    3.6800    3.6900    3.7000    3.7100    3.7200    3.7300    3.7400    3.7500
    3.7600    3.7700    3.7800    3.7900    3.8000    3.8100    3.8200    3.8300
    3.8400    3.8500    3.8600    3.8700    3.8800    3.8900    3.9000    3.9100
    3.9200    3.9300    3.9400    3.9500    3.9600    3.9700    3.9800    3.9900
    4.0000    4.0100    4.0200    4.0300    4.0400    4.0500    4.0600    4.0700
    4.0800    4.0900    4.1000    4.1100    4.1200    4.1300    4.1400    4.1500
    4.1600    4.1700    4.1800    4.1900    4.2000    4.2100    4.2200    4.2300
    4.2400    4.2500    4.2600    4.2700    4.2800    4.2900    4.3000    4.3100
    4.3200    4.3300    4.3400    4.3500    4.3600    4.3700    4.3800    4.3900
    4.4000    4.4100    4.4200    4.4300    4.4400    4.4500    4.4600    4.4700
    4.4800    4.4900    4.5000    4.5100    4.5200    4.5300    4.5400    4.5500
    4.5600    4.5700    4.5800    4.5900    4.6000    4.6100    4.6200    4.6300
    4.6400    4.6500    4.6600    4.6700    4.6800    4.6900    4.7000    4.7100
    4.7200    4.7300    4.7400    4.7500    4.7600    4.7700    4.7800    4.7900
    4.8000    4.8100    4.8200    4.8300    4.8400    4.8500    4.8600    4.8700
    4.8800    4.8900    4.9000    4.9100    4.9200    4.9300    4.9400    4.9500
    4.9600    4.9700    4.9800    4.9900    5.0000    5.0100    5.0200    5.0300
    5.0400    5.0500    5.0600    5.0700    5.0800    5.0900    5.1000    5.1100
    5.1200    5.1300    5.1400    5.1500    5.1600    5.1700    5.1800    5.1900
    5.2000    5.2100    5.2200    5.2300    5.2400    5.2500    5.2600    5.2700
    5.2800    5.2900    5.3000    5.3100    5.3200    5.3300    5.3400    5.3500
    5.3600    5.3700    5.3800    5.3900    5.4000    5.4100    5.4200    5.4300
    5.4400    5.4500    5.4600    5.4700    5.4800    5.4900    5.5000    5.5100
    5.5200    5.5300    5.5400    5.5500    5.5600    5.5700    5.5800    5.5900
    5.6000    5.6100    5.6200    5.6300    5.6400    5.6500    5.6600    5.6700
    5.6800    5.6900    5.7000    5.7100    5.7200    5.7300    5.7400    5.7500
    5.7600    5.7700    5.7800    5.7900    5.8000    5.8100    5.8200    5.8300
    5.8400    5.8500    5.8600    5.8700    5.8800    5.8900    5.9000    5.9100
    5.9200    5.9300    5.9400    5.9500    5.9600    5.9700    5.9800    5.9900
    6.0000    6.0100
   </PP_R>
   <PP_RAB type="real"  size=" 602" columns="8">
    0.0100    0.0100    0.0100    0.0100    0.0100    0.0100    0.0100    0.0100
    0.0100    0.0100    0.0100    0.0100    0.0100    0.0100    0.0100    0.0100
    0.0100    0.0100    0.0100    0.0100    0.0100    0.0100    0.0100    0.0100
    0.0100    0.0100    0.0100    0.0100    0.0100    0.0100    0.0100    0.0100
    0.0100    0.0100    0.0100    0.0100    0.0100    0.0100    0.0100    0.0100
    0.0100    0.0100    0.0100    0.0100    0.0100    0.0100    0.0100    0.0100
    0.0100    0.0100    0.0100    0.0100    0.0100    0.0100    0.0100    0.0100
    0.0100    0.0100    0.0100    0.0100    0.0100    0.0100    0.0100    0.0100
    0.0100    0.0100    0.0100    0.0100    0.0100    0.0100    0.0100    0.0100
    0.0100    0.0100    0.0100    0.0100    0.0100    0.0100    0.0100    0.0100
    0.0100    0.0100    0.0100    0.0100    0.0100    0.0100    0.0100    0.0100
    0.0100    0.0100    0.0100    0.0100    0.0100    0.0100    0.0100    0.0100
    0.0100    0.0100    0.0100    0.0100    0.0100    0.0100    0.0100    0.0100
    0.0100    0.0100    0.0100    0.0100    0.0100    0.0100    0.0100    0.0100
    0.0100    0.0100    0.0100    0.0100    0.0100    0.0100    0.0100    0.0100
    0.0100    0.0100    0.0100    0.0100    0.0100    0.0100    0.0100    0.0100
    0.0100    0.0100    0.0100    0.0100    0.0100    0.0100    0.0100    0.0100
    0.0100    0.0100    0.0100    0.0100    0.0100    0.0100    0.0100    0.0100
    0.0100    0.0100    0.0100    0.0100    0.0100    0.0100    0.0100    0.0100
    0.0100    0.0100    0.0100    0.0100    0.0100    0.0100    0.0100    0.0100
    0.0100    0.0100    0.0100    0.0100    0.0100    0.0100    0.0100    0.0100
    0.0100    0.0100    0.0100    0.0100    0.0100    0.0100    0.0100    0.0100
    0.0100    0.0100    0.0100    0.0100    0.0100    0.0100    0.0100    0.0100
    0.0100    0.0100    0.0100    0.0100    0.0100    0.0100    0.0100    0.0100
    0.0100    0.0100    0.0100    0.0100    0.0100    0.0100    0.0100    0.0100
    0.0100    0.0100    0.0100    0.0100    0.0100    0.0100    0.0100    0.0100
    0.0100    0.0100    0.0100    0.0100    0.0100    0.0100    0.0100    0.0100
    0.0100    0.0100    0.0100    0.0100    0.0100    0.0100    0.0100    0.0100
    0.0100    0.0100    0.0100    0.0100    0.0100    0.0100    0.0100    0.0100
    0.0100    0.0100    0.0100    0.0100    0.0100    0.0100    0.0100    0.0100
    0.0100    0.0100    0.0100    0.0100    0.0100    0.0100    0.0100    0.0100
    0.0100    0.0100    0.0100    0.0100    0.0100    0.0100    0.0100    0.0100
    0.0100    0.0100    0.0100    0.0100    0.0100    0.0100    0.0100    0.0100
    0.0100    0.0100    0.0100    0.0100    0.0100    0.0100    0.0100    0.0100
    0.0100    0.0100    0.0100    0.0100    0.0100    0.0100    0.0100    0.0100
    0.0100    0.0100    0.0100    0.0100    0.0100    0.0100    0.0100    0.0100
    0.0100    0.0100    0.0100    0.0100    0.0100    0.0100    0.0100    0.0100
    0.0100    0.0100    0.0100    0.0100    0.0100    0.0100    0.0100    0.0100
    0.0100    0.0100    0.0100    0.0100    0.0100    0.0100    0.0100    0.0100
    0.0100    0.0100    0.0100    0.0100    0.0100    0.0100    0.0100    0.0100
    0.0100    0.0100    0.0100    0.0100    0.0100    0.0100    0.0100    0.0100
    0.0100    0.0100    0.0100    0.0100    0.0100    0.0100    0.0100    0.0100
    0.0100    0.0100    0.0100    0.0100    0.0100    0.0100    0.0100    0.0100
    0.0100    0.0100    0.0100    0.0100    0.0100    0.0100    0.0100    0.0100
    0.0100    0.0100    0.0100    0.0100    0.0100    0.0100    0.0100    0.0100
    0.0100    0.0100    0.0100    0.0100    0.0100    0.0100    0.0100    0.0100
    0.0100    0.0100    0.0100    0.0100    0.0100    0.0100    0.0100    0.0100
    0.0100    0.0100    0.0100    0.0100    0.0100    0.0100    0.0100    0.0100
    0.0100    0.0100    0.0100    0.0100    0.0100    0.0100    0.0100    0.0100
    0.0100    0.0100    0.0100    0.0100    0.0100    0.0100    0.0100    0.0100
    0.0100    0.0100    0.0100    0.0100    0.0100    0.0100    0.0100    0.0100
    0.0100    0.0100    0.0100    0.0100    0.0100    0.0100    0.0100    0.0100
    0.0100    0.0100    0.0100    0.0100    0.0100    0.0100    0.0100    0.0100
    0.0100    0.0100    0.0100    0.0100    0.0100    0.0100    0.0100    0.0100
    0.0100    0.0100    0.0100    0.0100    0.0100    0.0100    0.0100    0.0100
    0.0100    0.0100    0.0100    0.0100    0.0100    0.0100    0.0100    0.0100
    0.0100    0.0100    0.0100    0.0100    0.0100    0.0100    0.0100    0.0100
    0.0100    0.0100    0.0100    0.0100    0.0100    0.0100    0.0100    0.0100
    0.0100    0.0100    0.0100    0.0100    0.0100    0.0100    0.0100    0.0100
    0.0100    0.0100    0.0100    0.0100    0.0100    0.0100    0.0100    0.0100
    0.0100    0.0100    0.0100    0.0100    0.0100    0.0100    0.0100    0.0100
    0.0100    0.0100    0.0100    0.0100    0.0100    0.0100    0.0100    0.0100
    0.0100    0.0100    0.0100    0.0100    0.0100    0.0100    0.0100    0.0100
    0.0100    0.0100    0.0100    0.0100    0.0100    0.0100    0.0100    0.0100
    0.0100    0.0100    0.0100    0.0100    0.0100    0.0100    0.0100    0.0100
    0.0100    0.0100    0.0100    0.0100    0.0100    0.0100    0.0100    0.0100
    0.0100    0.0100    0.0100    0.0100    0.0100    0.0100    0.0100    0.0100
    0.0100    0.0100    0.0100    0.0100    0.0100    0.0100    0.0100    0.0100
    0.0100    0.0100    0.0100    0.0100    0.0100    0.0100    0.0100    0.0100
    0.0100    0.0100    0.0100    0.0100    0.0100    0.0100    0.0100    0.0100
    0.0100    0.0100    0.0100    0.0100    0.0100    0.0100    0.0100    0.0100
    0.0100    0.0100    0.0100    0.0100    0.0100    0.0100    0.0100    0.0100
    0.0100    0.0100    0.0100    0.0100    0.0100    0.0100    0.0100    0.0100
    0.0100    0.0100    0.0100    0.0100    0.0100    0.0100    0.0100    0.0100
    0.0100    0.0100    0.0100    0.0100    0.0100    0.0100    0.0100    0.0100
    0.0100    0.0100
   </PP_RAB>
 </PP_MESH>
  <PP_LOCAL type="real"  size=" 602" columns="4">
   -4.5393751713E+01   -4.5392128525E+01   -4.5387311131E+01   -4.5379240940E+01
   -4.5367859360E+01   -4.5353090418E+01   -4.5334846019E+01   -4.5313031729E+01
   -4.5287552548E+01   -4.5258318200E+01   -4.5225247609E+01   -4.5188272319E+01
   -4.5147338786E+01   -4.5102409569E+01   -4.5053463539E+01   -4.5000495288E+01
   -4.4943513920E+01   -4.4882541442E+01   -4.4817610919E+01   -4.4748764556E+01
   -4.4676051811E+01   -4.4599527628E+01   -4.4519250853E+01   -4.4435282840E+01
   -4.4347686278E+01   -4.4256524222E+01   -4.4161859314E+01   -4.4063753185E+01
   -4.3962266003E+01   -4.3857456151E+01   -4.3749380017E+01   -4.3638091868E+01
   -4.3523643798E+01   -4.3406085732E+01   -4.3285465468E+01   -4.3161828765E+01
   -4.3035219439E+01   -4.2905679493E+01   -4.2773249251E+01   -4.2637967498E+01
   -4.2499871637E+01   -4.2358997841E+01   -4.2215381204E+01   -4.2069055905E+01
   -4.1920055353E+01   -4.1768412350E+01   -4.1614159240E+01   -4.1457328055E+01
   -4.1297950671E+01   -4.1136058945E+01   -4.0971684860E+01   -4.0804860666E+01
   -4.0635619005E+01   -4.0463993057E+01   -4.0290016650E+01   -4.0113724387E+01
   -3.9935151767E+01   -3.9754335276E+01   -3.9571312517E+01   -3.9386122274E+01
   -3.9198804617E+01   -3.9009400993E+01   -3.8817954237E+01   -3.8624508732E+01
   -3.8429110372E+01   -3.8231806609E+01   -3.8032646565E+01   -3.7831680968E+01
   -3.7628962173E+01   -3.7424544194E+01   -3.7218482699E+01   -3.7010834954E+01
   -3.6801659808E+01   -3.6591017654E+01   -3.6378970388E+01   -3.6165581373E+01
   -3.5950915347E+01   -3.5735038364E+01   -3.5518017723E+01   -3.5299921892E+01
   -3.5080820421E+01   -3.4860783859E+01   -3.4639883662E+01   -3.4418192104E+01
   -3.4195782183E+01   -3.3972727524E+01   -3.3749102291E+01   -3.3524981086E+01
   -3.3300438857E+01   -3.3075550809E+01   -3.2850392304E+01   -3.2625038779E+01
   -3.2399565652E+01   -3.2174048234E+01   -3.1948561651E+01   -3.1723180751E+01
   -3.1497980034E+01   -3.1273033585E+01   -3.1048414955E+01   -3.0824197113E+01
   -3.0600452377E+01   -3.0377252336E+01   -3.0154667785E+01   -2.9932768687E+01
   -2.9711624067E+01   -2.9491301893E+01   -2.9271869112E+01   -2.9053391552E+01
   -2.8835933935E+01   -2.8619559694E+01   -2.8404330868E+01   -2.8190308201E+01
   -2.7977551084E+01   -2.7766117521E+01   -2.7556063684E+01   -2.7347444309E+01
   -2.7140312645E+01   -2.6934720188E+01   -2.6730716408E+01   -2.6528349154E+01
   -2.6327664840E+01   -2.6128707222E+01   -2.5931518356E+01   -2.5736138723E+01
   -2.5542606236E+01   -2.5350956576E+01   -2.5161223882E+01   -2.4973439647E+01
   -2.4787632766E+01   -2.4603830698E+01   -2.4422057870E+01   -2.4242336041E+01
   -2.4064685727E+01   -2.3889123566E+01   -2.3715664011E+01   -2.3544320189E+01
   -2.3375100415E+01   -2.3208012030E+01   -2.3043059353E+01   -2.2880242870E+01
   -2.2719562588E+01   -2.2561013099E+01   -2.2404587862E+01   -2.2250277440E+01
   -2.2098067966E+01   -2.1947945803E+01   -2.1799890554E+01   -2.1653882094E+01
   -2.1509895640E+01   -2.1367903720E+01   -2.1227877195E+01   -2.1089781234E+01
   -2.0953582112E+01   -2.0819238329E+01   -2.0686710033E+01   -2.0555954584E+01
   -2.0426930528E+01   -2.0299597708E+01   -2.0173916782E+01   -2.0049849368E+01
   -1.9927358481E+01   -1.9806407470E+01   -1.9686961691E+01   -1.9568986287E+01
   -1.9452448905E+01   -1.9337316541E+01   -1.9223559058E+01   -1.9111145354E+01
   -1.9000047395E+01   -1.8890236009E+01   -1.8781685123E+01   -1.8674367503E+01
   -1.8568258862E+01   -1.8463333884E+01   -1.8359569873E+01   -1.8256943385E+01
   -1.8155433107E+01   -1.8055017388E+01   -1.7955676100E+01   -1.7857389268E+01
   -1.7760137767E+01   -1.7663903162E+01   -1.7568667178E+01   -1.7474412758E+01
   -1.7381122359E+01   -1.7288780140E+01   -1.7197369195E+01   -1.7106874629E+01
   -1.7017280496E+01   -1.6928572329E+01   -1.6840735263E+01   -1.6753755142E+01
   -1.6667618176E+01   -1.6582310457E+01   -1.6497819292E+01   -1.6414130995E+01
   -1.6331233765E+01   -1.6249114818E+01   -1.6167762557E+01   -1.6087165483E+01
   -1.6007312062E+01   -1.5928192185E+01   -1.5849794527E+01   -1.5772109914E+01
   -1.5695128265E+01   -1.5618840342E+01   -1.5543237757E+01   -1.5468311108E+01
   -1.5394053281E+01   -1.5320455935E+01   -1.5247511854E+01   -1.5175214321E+01
   -1.5103555850E+01   -1.5032530799E+01   -1.4962132572E+01   -1.4892355302E+01
   -1.4823193597E+01   -1.4754641398E+01   -1.4686693841E+01   -1.4619345574E+01
   -1.4552591396E+01   -1.4486426441E+01   -1.4420845643E+01   -1.4355844071E+01
   -1.4291416802E+01   -1.4227558937E+01   -1.4164265364E+01   -1.4101531146E+01
   -1.4039351188E+01   -1.3977720137E+01   -1.3916632980E+01   -1.3856084176E+01
   -1.3796068155E+01   -1.3736579728E+01   -1.3677612861E+01   -1.3619161845E+01
   -1.3561221056E+01   -1.3503784251E+01   -1.3446845513E+01   -1.3390398828E+01
   -1.3334437862E+01   -1.3278956489E+01   -1.3223948471E+01   -1.3169407474E+01
   -1.3115327199E+01   -1.3061701391E+01   -1.3008523806E+01   -1.2955788048E+01
   -1.2903488041E+01   -1.2851617733E+01   -1.2800170733E+01   -1.2749141309E+01
   -1.2698523715E+01   -1.2648311706E+01   -1.2598499983E+01   -1.2549083199E+01
   -1.2500055405E+01   -1.2451411737E+01   -1.2403147334E+01   -1.2355256680E+01
   -1.2307735285E+01   -1.2260578815E+01   -1.2213782247E+01   -1.2167341406E+01
   -1.2121252562E+01   -1.2075511452E+01   -1.2030114071E+01   -1.1985056868E+01
   -1.1940335986E+01   -1.1895947565E+01   -1.1851888092E+01   -1.1808153886E+01
   -1.1764741020E+01   -1.1721646300E+01   -1.1678866248E+01   -1.1636397172E+01
   -1.1594235877E+01   -1.1552379107E+01   -1.1510823403E+01   -1.1469565531E+01
   -1.1428602463E+01   -1.1387930989E+01   -1.1347547809E+01   -1.1307450118E+01
   -1.1267634904E+01   -1.1228098945E+01   -1.1188839492E+01   -1.1149853723E+01
   -1.1111138661E+01   -1.1072691432E+01   -1.1034509450E+01   -1.0996589975E+01
   -1.0958930039E+01   -1.0921527235E+01   -1.0884378963E+01   -1.0847482498E+01
   -1.0810835261E+01   -1.0774434893E+01   -1.0738278905E+01   -1.0702364593E+01
   -1.0666689764E+01   -1.0631252063E+01   -1.0596049032E+01   -1.0561078265E+01
   -1.0526337647E+01   -1.0491824914E+01   -1.0457537642E+01   -1.0423473736E+01
   -1.0389631105E+01   -1.0356007574E+01   -1.0322600805E+01   -1.0289408938E+01
   -1.0256429916E+01   -1.0223661602E+01   -1.0191101909E+01   -1.0158749015E+01
   -1.0126600958E+01   -1.0094655647E+01   -1.0062911216E+01   -1.0031365879E+01
   -1.0000017767E+01   -9.9688648445E+00   -9.9379054317E+00   -9.9071377864E+00
   -9.8765601252E+00   -9.8461704771E+00   -9.8159673165E+00   -9.7859489508E+00
   -9.7561136648E+00   -9.7264596011E+00   -9.6969853147E+00   -9.6676891843E+00
   -9.6385695615E+00   -9.6096246999E+00   -9.5808532154E+00   -9.5522535622E+00
   -9.5238241647E+00   -9.4955633622E+00   -9.4674698360E+00   -9.4395421124E+00
   -9.4117786942E+00   -9.3841779823E+00   -9.3567387282E+00   -9.3294595268E+00
   -9.3023389645E+00   -9.2753754817E+00   -9.2485679041E+00   -9.2219148921E+00
   -9.1954151062E+00   -9.1690670495E+00   -9.1428695816E+00   -9.1168214399E+00
   -9.0909213472E+00   -9.0651679003E+00   -9.0395599463E+00   -9.0140963127E+00
   -8.9887757818E+00   -8.9635970490E+00   -8.9385589302E+00   -8.9136603463E+00
   -8.8889001363E+00   -8.8642770999E+00   -8.8397900044E+00   -8.8154378662E+00
   -8.7912195786E+00   -8.7671340346E+00   -8.7431799855E+00   -8.7193564975E+00
   -8.6956625303E+00   -8.6720970287E+00   -8.6486588546E+00   -8.6253469864E+00
   -8.6021604924E+00   -8.5790983664E+00   -8.5561595879E+00   -8.5333430341E+00
   -8.5106478807E+00   -8.4880731685E+00   -8.4656179382E+00   -8.4432811401E+00
   -8.4210618728E+00   -8.3989592809E+00   -8.3769724499E+00   -8.3551004556E+00
   -8.3333422630E+00   -8.3116971325E+00   -8.2901641922E+00   -8.2687425703E+00
   -8.2474313274E+00   -8.2262296020E+00   -8.2051366384E+00   -8.1841516052E+00
   -8.1632736712E+00   -8.1425018926E+00   -8.1218355565E+00   -8.1012738956E+00
   -8.0808161175E+00   -8.0604614138E+00   -8.0402088936E+00   -8.0200579191E+00
   -8.0000077347E+00   -7.9800575846E+00   -7.9602066663E+00   -7.9404541973E+00
   -7.9207995429E+00   -7.9012419827E+00   -7.8817807963E+00   -7.8624151942E+00
   -7.8431444813E+00   -7.8239680318E+00   -7.8048851590E+00   -7.7858951759E+00
   -7.7669973132E+00   -7.7481909428E+00   -7.7294754540E+00   -7.7108501920E+00
   -7.6923145021E+00   -7.6738676411E+00   -7.6555090285E+00   -7.6372380753E+00
   -7.6190541571E+00   -7.6009566498E+00   -7.5829448421E+00   -7.5650181832E+00
   -7.5471761117E+00   -7.5294180324E+00   -7.5117433500E+00   -7.4941513908E+00
   -7.4766416166E+00   -7.4592134994E+00   -7.4418664717E+00   -7.4245999660E+00
   -7.4074133512E+00   -7.3903060856E+00   -7.3732776801E+00   -7.3563275936E+00
   -7.3394552851E+00   -7.3226601712E+00   -7.3059416918E+00   -7.2892994015E+00
   -7.2727327844E+00   -7.2562413246E+00   -7.2398244913E+00   -7.2234816930E+00
   -7.2072125313E+00   -7.1910165144E+00   -7.1748931505E+00   -7.1588419479E+00
   -7.1428623264E+00   -7.1269538829E+00   -7.1111161667E+00   -7.0953487091E+00
   -7.0796510410E+00   -7.0640226446E+00   -7.0484630537E+00   -7.0329718773E+00
   -7.0175486684E+00   -7.0021929800E+00   -6.9869043614E+00   -6.9716822729E+00
   -6.9565263848E+00   -6.9414362711E+00   -6.9264115055E+00   -6.9114516617E+00
   -6.8965562595E+00   -6.8817248909E+00   -6.8669571958E+00   -6.8522527677E+00
   -6.8376112004E+00   -6.8230320875E+00   -6.8085149288E+00   -6.7940594278E+00
   -6.7796651993E+00   -6.7653318557E+00   -6.7510590097E+00   -6.7368462403E+00
   -6.7226931378E+00   -6.7085993946E+00   -6.6945646415E+00   -6.6805885089E+00
   -6.6666706276E+00   -6.6528105674E+00   -6.6390079981E+00   -6.6252626002E+00
   -6.6115740213E+00   -6.5979419094E+00   -6.5843659124E+00   -6.5708455979E+00
   -6.5573806982E+00   -6.5439708874E+00   -6.5306158299E+00   -6.5173151900E+00
   -6.5040686268E+00   -6.4908757278E+00   -6.4777362553E+00   -6.4646498892E+00
   -6.4516163093E+00   -6.4386351957E+00   -6.4257062147E+00   -6.4128289891E+00
   -6.4000032863E+00   -6.3872288010E+00   -6.3745052281E+00   -6.3618322625E+00
   -6.3492095835E+00   -6.3366368347E+00   -6.3241137941E+00   -6.3116401705E+00
   -6.2992156732E+00   -6.2868400110E+00   -6.2745128819E+00   -6.2622339368E+00
   -6.2500029690E+00   -6.2378197011E+00   -6.2256838558E+00   -6.2135951557E+00
   -6.2015533220E+00   -6.1895580004E+00   -6.1776090045E+00   -6.1657060698E+00
   -6.1538489319E+00   -6.1420373263E+00   -6.1302709884E+00   -6.1185495893E+00
   -6.1068729249E+00   -6.0952407569E+00   -6.0836528333E+00   -6.0721089020E+00
   -6.0606087106E+00   -6.0491519641E+00   -6.0377384253E+00   -6.0263678881E+00
   -6.0150401121E+00   -6.0037548568E+00   -5.9925118818E+00   -5.9813109304E+00
   -5.9701517221E+00   -5.9590340862E+00   -5.9479577936E+00   -5.9369226150E+00
   -5.9259283212E+00   -5.9149746830E+00   -5.9040614129E+00   -5.8931883333E+00
   -5.8823552406E+00   -5.8715619163E+00   -5.8608081419E+00   -5.8500936988E+00
   -5.8394183466E+00   -5.8287818417E+00   -5.8181840255E+00   -5.8076246898E+00
   -5.7971036262E+00   -5.7866206263E+00   -5.7761754818E+00   -5.7657679332E+00
   -5.7553978111E+00   -5.7450649360E+00   -5.7347691091E+00   -5.7245101319E+00
   -5.7142878056E+00   -5.7041019262E+00   -5.6939522387E+00   -5.6838386161E+00
   -5.6737608689E+00   -5.6637188077E+00   -5.6537122433E+00   -5.6437409861E+00
   -5.6338048233E+00   -5.6239035484E+00   -5.6140370244E+00   -5.6042050706E+00
   -5.5944075065E+00   -5.5846441516E+00   -5.5749148252E+00   -5.5652193116E+00
   -5.5555574394E+00   -5.5459290669E+00   -5.5363340218E+00   -5.5267721320E+00
   -5.5172432253E+00   -5.5077471297E+00   -5.4982836318E+00   -5.4888525828E+00
   -5.4794538413E+00   -5.4700872432E+00   -5.4607526244E+00   -5.4514498208E+00
   -5.4421786681E+00   -5.4329389608E+00   -5.4237305604E+00   -5.4145533312E+00
   -5.4054071167E+00   -5.3962917604E+00   -5.3872071059E+00   -5.3781529966E+00
   -5.3691292391E+00   -5.3601356943E+00   -5.3511722367E+00   -5.3422387174E+00
   -5.3333349870E+00   -5.3244608965E+00
  </PP_LOCAL>
 <PP_NONLOCAL>
   <PP_BETA.1
       type="real"
       size=" 602"
       columns="4"
       index="1"
       angular_momentum="0"
       cutoff_radius_index=" 266"
       cutoff_radius="    2.6500000000E+00" >
    0.0000000000E+00   -5.1919813231E-02   -1.0376836763E-01   -1.5547451826E-01
   -2.0696734775E-01   -2.5817627965E-01   -3.0903119124E-01   -3.5946252561E-01
   -4.0940140285E-01   -4.5877973015E-01   -5.0753031070E-01   -5.5558695114E-01
   -6.0288456738E-01   -6.4935928877E-01   -6.9494856022E-01   -7.3959124233E-01
   -7.8322770920E-01   -8.2579994386E-01   -8.6725163115E-01   -9.0752824788E-01
   -9.4657715006E-01   -9.8434765728E-01   -1.0207911338E+00   -1.0558610662E+00
   -1.0895131384E+00   -1.1217053018E+00   -1.1523978431E+00   -1.1815534475E+00
   -1.2091372585E+00   -1.2351169330E+00   -1.2594626934E+00   -1.2821473745E+00
   -1.3031464665E+00   -1.3224381535E+00   -1.3400033485E+00   -1.3558257214E+00
   -1.3698917264E+00   -1.3821906200E+00   -1.3927144781E+00   -1.4014582070E+00
   -1.4084195489E+00   -1.4135990836E+00   -1.4170002250E+00   -1.4186292124E+00
   -1.4184950978E+00   -1.4166097271E+00   -1.4129877174E+00   -1.4076464288E+00
   -1.4006059319E+00   -1.3918889698E+00   -1.3815209157E+00   -1.3695297253E+00
   -1.3559458873E+00   -1.3408023614E+00   -1.3241345231E+00   -1.3059800946E+00
   -1.2863790738E+00   -1.2653736648E+00   -1.2430081908E+00   -1.2193290205E+00
   -1.1943844757E+00   -1.1682247343E+00   -1.1409017634E+00   -1.1124691737E+00
   -1.0829821589E+00   -1.0524973913E+00   -1.0210728696E+00   -9.8876785261E-01
   -9.5564274094E-01   -9.2175894495E-01   -8.8717875813E-01   -8.5196526139E-01
   -8.1618219103E-01   -7.7989382158E-01   -7.4316483056E-01   -7.0606015484E-01
   -6.6864489445E-01   -6.3098417245E-01   -5.9314300636E-01   -5.5518617936E-01
   -5.1717811185E-01   -4.7918273346E-01   -4.4126335579E-01   -4.0348254627E-01
   -3.6590200334E-01   -3.2858243327E-01   -2.9158342883E-01   -2.5496335028E-01
   -2.1877920873E-01   -1.8308655243E-01   -1.4793935605E-01   -1.1338991348E-01