<UPF version="2.0.1">
  <PP_INFO>

 This pseudopotential file has been produced using the code
 ONCVPSP  (Optimized Norm-Conservinng Vanderbilt PSeudopotential)
 scalar-relativistic version 2.1.1, 03/26/2014 by D. R. Hamann
 The code is available through a link at URL www.mat-simresearch.com.
 Documentation with the package provides a full discription of the
 input data below.


 While it is not required under the terms of the GNU GPL, it is
 suggested that you cite D. R. Hamann, Phys. Rev. B 88, 085117 (2013)
 in any publication using these pseudopotentials.


 Copyright 2015 The Regents of the University of California
 
 This work is licensed under the Creative Commons Attribution-ShareAlike 
 4.0 International License. To view a copy of this license, visit 
 http://creativecommons.org/licenses/by-sa/4.0/ or send a letter to 
 Creative Commons, PO Box 1866, Mountain View, CA 94042, USA.
 
 This pseudopotential is part of the Schlipf-Gygi norm-conserving 
 pseudopotential library. Its construction parameters were tuned to 
 reproduce materials of a training set with very high accuracy and 
 should be suitable as a general purpose pseudopotential to treat a 
 variety of different compounds. For details of the construction and 
 testing of the pseudopotential please refer to:
 
 [insert reference to paper here]
 
 We kindly ask that you include this reference in all publications 
 associated to this pseudopotential.


    <PP_INPUTFILE>
# ATOM AND REFERENCE CONFIGURATION
# atsym  z    nc    nv    iexc   psfile
  S 16.00     3     2     4      upf
#
#   n    l    f        energy (Ha)
    1    0    2.00
    2    0    2.00
    2    1    6.00
    3    0    2.00
    3    1    4.00
#
# PSEUDOPOTENTIAL AND OPTIMIZATION
# lmax
    1
#
#   l,   rc,     ep,   ncon, nbas, qcut
    0   2.12945  -0.63416    5    8   6.75573
    1   1.52480  -0.25757    5    8   8.63513
#
# LOCAL POTENTIAL
# lloc, lpopt,  rc(5),   dvloc0
    4    5   0.95758      0.00000
#
# VANDERBILT-KLEINMAN-BYLANDER PROJECTORs
# l, nproj, debl
    0    2   1.22534
    1    2   1.65602
#
# MODEL CORE CHARGE
# icmod, fcfact
    0   0.00000
#
# LOG DERIVATIVE ANALYSIS
# epsh1, epsh2, depsh
   -5.00    3.00    0.02
#
# OUTPUT GRID
# rlmax, drl
    6.00    0.01
#
# TEST CONFIGURATIONS
# ncnf
    0
# nvcnf
#   n    l    f
    </PP_INPUTFILE>
  </PP_INFO>
  <!--                               -->
  <!-- END OF HUMAN READABLE SECTION -->
  <!--                               -->
    <PP_HEADER
       generated="Generated using ONCVPSP code by D. R. Hamann"
       author="Martin Schlipf and Francois Gygi"
       date="150415"
       comment=""
       element="S "
       pseudo_type="NC"
       relativistic="scalar"
       is_ultrasoft="F"
       is_paw="F"
       is_coulomb="F"
       has_so="F"
       has_wfc="F"
       has_gipaw="F"
       core_correction="F"
       functional="PBE"
       z_valence="    6.00"
       total_psenergy="  -1.00750739417E+01"
       rho_cutoff="   6.01000000000E+00"
       l_max="1"
       l_local="-1"
       mesh_size="   602"
       number_of_wfc="0"
       number_of_proj="4"/>
 <PP_MESH>
   <PP_R type="real"  size=" 602" columns="8">
    0.0000    0.0100    0.0200    0.0300    0.0400    0.0500    0.0600    0.0700
    0.0800    0.0900    0.1000    0.1100    0.1200    0.1300    0.1400    0.1500
    0.1600    0.1700    0.1800    0.1900    0.2000    0.2100    0.2200    0.2300
    0.2400    0.2500    0.2600    0.2700    0.2800    0.2900    0.3000    0.3100
    0.3200    0.3300    0.3400    0.3500    0.3600    0.3700    0.3800    0.3900
    0.4000    0.4100    0.4200    0.4300    0.4400    0.4500    0.4600    0.4700
    0.4800    0.4900    0.5000    0.5100    0.5200    0.5300    0.5400    0.5500
    0.5600    0.5700    0.5800    0.5900    0.6000    0.6100    0.6200    0.6300
    0.6400    0.6500    0.6600    0.6700    0.6800    0.6900    0.7000    0.7100
    0.7200    0.7300    0.7400    0.7500    0.7600    0.7700    0.7800    0.7900
    0.8000    0.8100    0.8200    0.8300    0.8400    0.8500    0.8600    0.8700
    0.8800    0.8900    0.9000    0.9100    0.9200    0.9300    0.9400    0.9500
    0.9600    0.9700    0.9800    0.9900    1.0000    1.0100    1.0200    1.0300
    1.0400    1.0500    1.0600    1.0700    1.0800    1.0900    1.1000    1.1100
    1.1200    1.1300    1.1400    1.1500    1.1600    1.1700    1.1800    1.1900
    1.2000    1.2100    1.2200    1.2300    1.2400    1.2500    1.2600    1.2700
    1.2800    1.2900    1.3000    1.3100    1.3200    1.3300    1.3400    1.3500
    1.3600    1.3700    1.3800    1.3900    1.4000    1.4100    1.4200    1.4300
    1.4400    1.4500    1.4600    1.4700    1.4800    1.4900    1.5000    1.5100
    1.5200    1.5300    1.5400    1.5500    1.5600    1.5700    1.5800    1.5900
    1.6000    1.6100    1.6200    1.6300    1.6400    1.6500    1.6600    1.6700
    1.6800    1.6900    1.7000    1.7100    1.7200    1.7300    1.7400    1.7500
    1.7600    1.7700    1.7800    1.7900    1.8000    1.8100    1.8200    1.8300
    1.8400    1.8500    1.8600    1.8700    1.8800    1.8900    1.9000    1.9100
    1.9200    1.9300    1.9400    1.9500    1.9600    1.9700    1.9800    1.9900
    2.0000    2.0100    2.0200    2.0300    2.0400    2.0500    2.0600    2.0700
    2.0800    2.0900    2.1000    2.1100    2.1200    2.1300    2.1400    2.1500
    2.1600    2.1700    2.1800    2.1900    2.2000    2.2100    2.2200    2.2300
    2.2400    2.2500    2.2600    2.2700    2.2800    2.2900    2.3000    2.3100
    2.3200    2.3300    2.3400    2.3500    2.3600    2.3700    2.3800    2.3900
    2.4000    2.4100    2.4200    2.4300    2.4400    2.4500    2.4600    2.4700
    2.4800    2.4900    2.5000    2.5100    2.5200    2.5300    2.5400    2.5500
    2.5600    2.5700    2.5800    2.5900    2.6000    2.6100    2.6200    2.6300
    2.6400    2.6500    2.6600    2.6700    2.6800    2.6900    2.7000    2.7100
    2.7200    2.7300    2.7400    2.7500    2.7600    2.7700    2.7800    2.7900
    2.8000    2.8100    2.8200    2.8300    2.8400    2.8500    2.8600    2.8700
    2.8800    2.8900    2.9000    2.9100    2.9200    2.9300    2.9400    2.9500
    2.9600    2.9700    2.9800    2.9900    3.0000    3.0100    3.0200    3.0300
    3.0400    3.0500    3.0600    3.0700    3.0800    3.0900    3.1000    3.1100
    3.1200    3.1300    3.1400    3.1500    3.1600    3.1700    3.1800    3.1900
    3.2000    3.2100    3.2200    3.2300    3.2400    3.2500    3.2600    3.2700
    3.2800    3.2900    3.3000    3.3100    3.3200    3.3300    3.3400    3.3500
    3.3600    3.3700    3.3800    3.3900    3.4000    3.4100    3.4200    3.4300
    3.4400    3.4500    3.4600    3.4700    3.4800    3.4900    3.5000    3.5100
    3.5200    3.5300    3.5400    3.5500    3.5600    3.5700    3.5800    3.5900
    3.6000    3.6100    3.6200    3.6300    3.6400    3.6500    3.6600    3.6700
    3.6800    3.6900    3.7000    3.7100    3.7200    3.7300    3.7400    3.7500
    3.7600    3.7700    3.7800    3.7900    3.8000    3.8100    3.8200    3.8300
    3.8400    3.8500    3.8600    3.8700    3.8800    3.8900    3.9000    3.9100
    3.9200    3.9300    3.9400    3.9500    3.9600    3.9700    3.9800    3.9900
    4.0000    4.0100    4.0200    4.0300    4.0400    4.0500    4.0600    4.0700
    4.0800    4.0900    4.1000    4.1100    4.1200    4.1300    4.1400    4.1500
    4.1600    4.1700    4.1800    4.1900    4.2000    4.2100    4.2200    4.2300
    4.2400    4.2500    4.2600    4.2700    4.2800    4.2900    4.3000    4.3100
    4.3200    4.3300    4.3400    4.3500    4.3600    4.3700    4.3800    4.3900
    4.4000    4.4100    4.4200    4.4300    4.4400    4.4500    4.4600    4.4700
    4.4800    4.4900    4.5000    4.5100    4.5200    4.5300    4.5400    4.5500
    4.5600    4.5700    4.5800    4.5900    4.6000    4.6100    4.6200    4.6300
    4.6400    4.6500    4.6600    4.6700    4.6800    4.6900    4.7000    4.7100
    4.7200    4.7300    4.7400    4.7500    4.7600    4.7700    4.7800    4.7900
    4.8000    4.8100    4.8200    4.8300    4.8400    4.8500    4.8600    4.8700
    4.8800    4.8900    4.9000    4.9100    4.9200    4.9300    4.9400    4.9500
    4.9600    4.9700    4.9800    4.9900    5.0000    5.0100    5.0200    5.0300
    5.0400    5.0500    5.0600    5.0700    5.0800    5.0900    5.1000    5.1100
    5.1200    5.1300    5.1400    5.1500    5.1600    5.1700    5.1800    5.1900
    5.2000    5.2100    5.2200    5.2300    5.2400    5.2500    5.2600    5.2700
    5.2800    5.2900    5.3000    5.3100    5.3200    5.3300    5.3400    5.3500
    5.3600    5.3700    5.3800    5.3900    5.4000    5.4100    5.4200    5.4300
    5.4400    5.4500    5.4600    5.4700    5.4800    5.4900    5.5000    5.5100
    5.5200    5.5300    5.5400    5.5500    5.5600    5.5700    5.5800    5.5900
    5.6000    5.6100    5.6200    5.6300    5.6400    5.6500    5.6600    5.6700
    5.6800    5.6900    5.7000    5.7100    5.7200    5.7300    5.7400    5.7500
    5.7600    5.7700    5.7800    5.7900    5.8000    5.8100    5.8200    5.8300
    5.8400    5.8500    5.8600    5.8700    5.8800    5.8900    5.9000    5.9100
    5.9200    5.9300    5.9400    5.9500    5.9600    5.9700    5.9800    5.9900
    6.0000    6.0100
   </PP_R>
   <PP_RAB type="real"  size=" 602" columns="8">
    0.0100    0.0100    0.0100    0.0100    0.0100    0.0100    0.0100    0.0100
    0.0100    0.0100    0.0100    0.0100    0.0100    0.0100    0.0100    0.0100
    0.0100    0.0100    0.0100    0.0100    0.0100    0.0100    0.0100    0.0100
    0.0100    0.0100    0.0100    0.0100    0.0100    0.0100    0.0100    0.0100
    0.0100    0.0100    0.0100    0.0100    0.0100    0.0100    0.0100    0.0100
    0.0100    0.0100    0.0100    0.0100    0.0100    0.0100    0.0100    0.0100
    0.0100    0.0100    0.0100    0.0100    0.0100    0.0100    0.0100    0.0100
    0.0100    0.0100    0.0100    0.0100    0.0100    0.0100    0.0100    0.0100
    0.0100    0.0100    0.0100    0.0100    0.0100    0.0100    0.0100    0.0100
    0.0100    0.0100    0.0100    0.0100    0.0100    0.0100    0.0100    0.0100
    0.0100    0.0100    0.0100    0.0100    0.0100    0.0100    0.0100    0.0100
    0.0100    0.0100    0.0100    0.0100    0.0100    0.0100    0.0100    0.0100
    0.0100    0.0100    0.0100    0.0100    0.0100    0.0100    0.0100    0.0100
    0.0100    0.0100    0.0100    0.0100    0.0100    0.0100    0.0100    0.0100
    0.0100    0.0100    0.0100    0.0100    0.0100    0.0100    0.0100    0.0100
    0.0100    0.0100    0.0100    0.0100    0.0100    0.0100    0.0100    0.0100
    0.0100    0.0100    0.0100    0.0100    0.0100    0.0100    0.0100    0.0100
    0.0100    0.0100    0.0100    0.0100    0.0100    0.0100    0.0100    0.0100
    0.0100    0.0100    0.0100    0.0100    0.0100    0.0100    0.0100    0.0100
    0.0100    0.0100    0.0100    0.0100    0.0100    0.0100    0.0100    0.0100
    0.0100    0.0100    0.0100    0.0100    0.0100    0.0100    0.0100    0.0100
    0.0100    0.0100    0.0100    0.0100    0.0100    0.0100    0.0100    0.0100
    0.0100    0.0100    0.0100    0.0100    0.0100    0.0100    0.0100    0.0100
    0.0100    0.0100    0.0100    0.0100    0.0100    0.0100    0.0100    0.0100
    0.0100    0.0100    0.0100    0.0100    0.0100    0.0100    0.0100    0.0100
    0.0100    0.0100    0.0100    0.0100    0.0100    0.0100    0.0100    0.0100
    0.0100    0.0100    0.0100    0.0100    0.0100    0.0100    0.0100    0.0100
    0.0100    0.0100    0.0100    0.0100    0.0100    0.0100    0.0100    0.0100
    0.0100    0.0100    0.0100    0.0100    0.0100    0.0100    0.0100    0.0100
    0.0100    0.0100    0.0100    0.0100    0.0100    0.0100    0.0100    0.0100
    0.0100    0.0100    0.0100    0.0100    0.0100    0.0100    0.0100    0.0100
    0.0100    0.0100    0.0100    0.0100    0.0100    0.0100    0.0100    0.0100
    0.0100    0.0100    0.0100    0.0100    0.0100    0.0100    0.0100    0.0100
    0.0100    0.0100    0.0100    0.0100    0.0100    0.0100    0.0100    0.0100
    0.0100    0.0100    0.0100    0.0100    0.0100    0.0100    0.0100    0.0100
    0.0100    0.0100    0.0100    0.0100    0.0100    0.0100    0.0100    0.0100
    0.0100    0.0100    0.0100    0.0100    0.0100    0.0100    0.0100    0.0100
    0.0100    0.0100    0.0100    0.0100    0.0100    0.0100    0.0100    0.0100
    0.0100    0.0100    0.0100    0.0100    0.0100    0.0100    0.0100    0.0100
    0.0100    0.0100    0.0100    0.0100    0.0100    0.0100    0.0100    0.0100
    0.0100    0.0100    0.0100    0.0100    0.0100    0.0100    0.0100    0.0100
    0.0100    0.0100    0.0100    0.0100    0.0100    0.0100    0.0100    0.0100
    0.0100    0.0100    0.0100    0.0100    0.0100    0.0100    0.0100    0.0100
    0.0100    0.0100    0.0100    0.0100    0.0100    0.0100    0.0100    0.0100
    0.0100    0.0100    0.0100    0.0100    0.0100    0.0100    0.0100    0.0100
    0.0100    0.0100    0.0100    0.0100    0.0100    0.0100    0.0100    0.0100
    0.0100    0.0100    0.0100    0.0100    0.0100    0.0100    0.0100    0.0100
    0.0100    0.0100    0.0100    0.0100    0.0100    0.0100    0.0100    0.0100
    0.0100    0.0100    0.0100    0.0100    0.0100    0.0100    0.0100    0.0100
    0.0100    0.0100    0.0100    0.0100    0.0100    0.0100    0.0100    0.0100
    0.0100    0.0100    0.0100    0.0100    0.0100    0.0100    0.0100    0.0100
    0.0100    0.0100    0.0100    0.0100    0.0100    0.0100    0.0100    0.0100
    0.0100    0.0100    0.0100    0.0100    0.0100    0.0100    0.0100    0.0100
    0.0100    0.0100    0.0100    0.0100    0.0100    0.0100    0.0100    0.0100
    0.0100    0.0100    0.0100    0.0100    0.0100    0.0100    0.0100    0.0100
    0.0100    0.0100    0.0100    0.0100    0.0100    0.0100    0.0100    0.0100
    0.0100    0.0100    0.0100    0.0100    0.0100    0.0100    0.0100    0.0100
    0.0100    0.0100    0.0100    0.0100    0.0100    0.0100    0.0100    0.0100
    0.0100    0.0100    0.0100    0.0100    0.0100    0.0100    0.0100    0.0100
    0.0100    0.0100    0.0100    0.0100    0.0100    0.0100    0.0100    0.0100
    0.0100    0.0100    0.0100    0.0100    0.0100    0.0100    0.0100    0.0100
    0.0100    0.0100    0.0100    0.0100    0.0100    0.0100    0.0100    0.0100
    0.0100    0.0100    0.0100    0.0100    0.0100    0.0100    0.0100    0.0100
    0.0100    0.0100    0.0100    0.0100    0.0100    0.0100    0.0100    0.0100
    0.0100    0.0100    0.0100    0.0100    0.0100    0.0100    0.0100    0.0100
    0.0100    0.0100    0.0100    0.0100    0.0100    0.0100    0.0100    0.0100
    0.0100    0.0100    0.0100    0.0100    0.0100    0.0100    0.0100    0.0100
    0.0100    0.0100    0.0100    0.0100    0.0100    0.0100    0.0100    0.0100
    0.0100    0.0100    0.0100    0.0100    0.0100    0.0100    0.0100    0.0100
    0.0100    0.0100    0.0100    0.0100    0.0100    0.0100    0.0100    0.0100
    0.0100    0.0100    0.0100    0.0100    0.0100    0.0100    0.0100    0.0100
    0.0100    0.0100    0.0100    0.0100    0.0100    0.0100    0.0100    0.0100
    0.0100    0.0100    0.0100    0.0100    0.0100    0.0100    0.0100    0.0100
    0.0100    0.0100    0.0100    0.0100    0.0100    0.0100    0.0100    0.0100
    0.0100    0.0100    0.0100    0.0100    0.0100    0.0100    0.0100    0.0100
    0.0100    0.0100
   </PP_RAB>
 </PP_MESH>
  <PP_LOCAL type="real"  size=" 602" columns="4">
   -5.6531142522E+01   -4.4719710750E+01   -4.0737916882E+01   -4.0678077352E+01
   -4.0632508592E+01   -4.0564228262E+01   -4.0480494419E+01   -4.0383737789E+01
   -4.0274809854E+01   -4.0154175953E+01   -4.0022217854E+01   -3.9879302471E+01
   -3.9725791891E+01   -3.9562039529E+01   -3.9388383710E+01   -3.9205141303E+01
   -3.9012601897E+01   -3.8811022638E+01   -3.8600623797E+01   -3.8381585272E+01
   -3.8154044222E+01   -3.7918094079E+01   -3.7673785094E+01   -3.7421126542E+01
   -3.7160090634E+01   -3.6890618068E+01   -3.6612624983E+01   -3.6326011215E+01
   -3.6030669369E+01   -3.5726494451E+01   -3.5413393619E+01   -3.5091295690E+01
   -3.4760160028E+01   -3.4419984431E+01   -3.4070812041E+01   -3.3712736607E+01
   -3.3345906617E+01   -3.2970527428E+01   -3.2586862619E+01   -3.2195233168E+01
   -3.1796015702E+01   -3.1389639485E+01   -3.0976582335E+01   -3.0557365671E+01
   -3.0132548861E+01   -2.9702723061E+01   -2.9268504719E+01   -2.8830528953E+01
   -2.8389442966E+01   -2.7945899717E+01   -2.7500551961E+01   -2.7054046698E+01
   -2.6607020491E+01   -2.6160095251E+01   -2.5713874717E+01   -2.5268942425E+01
   -2.4825858810E+01   -2.4385161394E+01   -2.3947362669E+01   -2.3512951726E+01
   -2.3082392943E+01   -2.2656128084E+01   -2.2234576386E+01   -2.1818135571E+01
   -2.1407183573E+01   -2.1002078622E+01   -2.0603160616E+01   -2.0210752087E+01
   -1.9825158697E+01   -1.9446669243E+01   -1.9075556600E+01   -1.8712077650E+01
   -1.8356473411E+01   -1.8008968568E+01   -1.7669771303E+01   -1.7339073136E+01
   -1.7017048363E+01   -1.6703853531E+01   -1.6399626860E+01   -1.6104487619E+01
   -1.5818535474E+01   -1.5541849822E+01   -1.5274489104E+01   -1.5016490168E+01
   -1.4767867411E+01   -1.4528612283E+01   -1.4298692615E+01   -1.4078051920E+01
   -1.3866608626E+01   -1.3664255579E+01   -1.3470859371E+01   -1.3286259717E+01
   -1.3110268847E+01   -1.2942670891E+01   -1.2783221276E+01   -1.2631646562E+01
   -1.2487644730E+01   -1.2350861509E+01   -1.2220834534E+01   -1.2096949112E+01
   -1.1978484981E+01   -1.1864675717E+01   -1.1754756466E+01   -1.1648008678E+01
   -1.1543790970E+01   -1.1441567322E+01   -1.1340924332E+01   -1.1241552701E+01
   -1.1143240553E+01   -1.1045855655E+01   -1.0949339518E+01   -1.0853679571E+01
   -1.0758892980E+01   -1.0665017539E+01   -1.0572103801E+01   -1.0480204645E+01
   -1.0389371369E+01   -1.0299652537E+01   -1.0211089585E+01   -1.0123717106E+01
   -1.0037563891E+01   -9.9526522666E+00   -9.8689966572E+00   -9.7866071171E+00
   -9.7054895312E+00   -9.6256429526E+00   -9.5470638020E+00   -9.4697457849E+00
   -9.3936776831E+00   -9.3188467125E+00   -9.2452382605E+00   -9.1728344237E+00
   -9.1016165521E+00   -9.0315645142E+00   -8.9626564338E+00   -8.8948700811E+00
   -8.8281820704E+00   -8.7625684721E+00   -8.6980051215E+00   -8.6344672991E+00
   -8.5719303690E+00   -8.5103695462E+00   -8.4497603438E+00   -8.3900782152E+00
   -8.3312993029E+00   -8.2733999048E+00   -8.2163568806E+00   -8.1601479016E+00
   -8.1047507059E+00   -8.0501446080E+00   -7.9963086397E+00   -7.9432236535E+00
   -7.8908705689E+00   -7.8392317114E+00   -7.7882900667E+00   -7.7380292459E+00
   -7.6884339474E+00   -7.6394888173E+00   -7.5911800176E+00   -7.5434933947E+00
   -7.4964158125E+00   -7.4499336467E+00   -7.4040348361E+00   -7.3587068456E+00
   -7.3139382394E+00   -7.2697172972E+00   -7.2260332841E+00   -7.1828752455E+00
   -7.1402330939E+00   -7.0980965537E+00   -7.0564561598E+00   -7.0153022431E+00
   -6.9746259352E+00   -6.9344181084E+00   -6.8946704669E+00   -6.8553743662E+00
   -6.8165220589E+00   -6.7781053326E+00   -6.7401169431E+00   -6.7025491252E+00
   -6.6653950269E+00   -6.6286473844E+00   -6.5922996326E+00   -6.5563450113E+00
   -6.5207771982E+00   -6.4855899181E+00   -6.4507770541E+00   -6.4163327909E+00
   -6.3822511900E+00   -6.3485268621E+00   -6.3151540325E+00   -6.2821276311E+00
   -6.2494422320E+00   -6.2170928513E+00   -6.1850744588E+00   -6.1533821338E+00
   -6.1220112095E+00   -6.0909568236E+00   -6.0602145826E+00   -6.0297798219E+00
   -5.9996482244E+00   -5.9698154213E+00   -5.9402770933E+00   -5.9110291514E+00
   -5.8820672945E+00   -5.8533876013E+00   -5.8249859743E+00   -5.7968584607E+00
   -5.7690012104E+00   -5.7414102494E+00   -5.7140818756E+00   -5.6870122092E+00
   -5.6601975698E+00   -5.6336343720E+00   -5.6073187950E+00   -5.5812476485E+00
   -5.5554174527E+00   -5.5298248841E+00   -5.5044667787E+00   -5.4793397446E+00
   -5.4544408137E+00   -5.4297668707E+00   -5.4053148142E+00   -5.3810818080E+00
   -5.3570648116E+00   -5.3332610116E+00   -5.3096676563E+00   -5.2862818061E+00
   -5.2631009054E+00   -5.2401222428E+00   -5.2173431044E+00   -5.1947610412E+00
   -5.1723734249E+00   -5.1501777632E+00   -5.1281716905E+00   -5.1063526703E+00
   -5.0847184086E+00   -5.0632666201E+00   -5.0419948627E+00   -5.0209010170E+00
   -4.9999828669E+00   -4.9792380981E+00   -4.9586647113E+00   -4.9382605658E+00
   -4.9180234912E+00   -4.8979515721E+00   -4.8780427546E+00   -4.8582949953E+00
   -4.8387064611E+00   -4.8192751854E+00   -4.7999992351E+00   -4.7808768582E+00
   -4.7619061764E+00   -4.7430853500E+00   -4.7244127085E+00   -4.7058864622E+00
   -4.6875048495E+00   -4.6692662815E+00   -4.6511690568E+00   -4.6332114780E+00
   -4.6153920375E+00   -4.5977091229E+00   -4.5801610876E+00   -4.5627465049E+00
   -4.5454638519E+00   -4.5283115208E+00   -4.5112881649E+00   -4.4943923378E+00
   -4.4776224998E+00   -4.4609773433E+00   -4.4444555019E+00   -4.4280555240E+00
   -4.4117761102E+00   -4.3956159805E+00   -4.3795737730E+00   -4.3636481856E+00
   -4.3478380235E+00   -4.3321420163E+00   -4.3165588507E+00   -4.3010874144E+00
   -4.2857265116E+00   -4.2704748654E+00   -4.2553313890E+00   -4.2402949596E+00
   -4.2253643904E+00   -4.2105385595E+00   -4.1958164321E+00   -4.1811969142E+00
   -4.1666788430E+00   -4.1522612668E+00   -4.1379431488E+00   -4.1237233943E+00
   -4.1096010183E+00   -4.0955750683E+00   -4.0816445427E+00   -4.0678083961E+00
   -4.0540657619E+00   -4.0404156977E+00   -4.0268572062E+00   -4.0133893910E+00
   -4.0000113885E+00   -3.9867222963E+00   -3.9735211415E+00   -3.9604071468E+00
   -3.9473794554E+00   -3.9344371732E+00   -3.9215794491E+00   -3.9088055146E+00
   -3.8961145530E+00   -3.8835056834E+00   -3.8709781630E+00   -3.8585312318E+00
   -3.8461641045E+00   -3.8338759389E+00   -3.8216660647E+00   -3.8095337392E+00
   -3.7974781927E+00   -3.7854986685E+00   -3.7735945110E+00   -3.7617650123E+00
   -3.7500094214E+00   -3.7383270553E+00   -3.7267172746E+00   -3.7151794042E+00
   -3.7037127152E+00   -3.6923165864E+00   -3.6809903962E+00   -3.6697335012E+00
   -3.6585451969E+00   -3.6474249126E+00   -3.6363720472E+00   -3.6253859871E+00
   -3.6144660546E+00   -3.6036117191E+00   -3.5928224022E+00   -3.5820975189E+00
   -3.5714364198E+00   -3.5608386048E+00   -3.5503035207E+00   -3.5398306097E+00
   -3.5294192525E+00   -3.5190689702E+00   -3.5087792371E+00   -3.4985495214E+00
   -3.4883792352E+00   -3.4782679128E+00   -3.4682150578E+00   -3.4582201632E+00
   -3.4482826743E+00   -3.4384021303E+00   -3.4285780661E+00   -3.4188099984E+00
   -3.4090974074E+00   -3.3994398296E+00   -3.3898368330E+00   -3.3802879566E+00
   -3.3707927175E+00   -3.3613506427E+00   -3.3519613340E+00   -3.3426243521E+00
   -3.3333392527E+00   -3.3241055471E+00   -3.3149228718E+00   -3.3057908078E+00
   -3.2967089362E+00   -3.2876767928E+00   -3.2786940036E+00   -3.2697601839E+00
   -3.2608749344E+00   -3.2520378327E+00   -3.2432484731E+00   -3.2345065110E+00
   -3.2258115655E+00   -3.2171632559E+00   -3.2085611474E+00   -3.2000049277E+00
   -3.1914942360E+00   -3.1830287092E+00   -3.1746079568E+00   -3.1662316222E+00
   -3.1578993881E+00   -3.1496109085E+00   -3.1413658372E+00   -3.1331637770E+00
   -3.1250044454E+00   -3.1168875150E+00   -3.1088126558E+00   -3.1007795176E+00
   -3.0927877624E+00   -3.0848371091E+00   -3.0769272431E+00   -3.0690578498E+00
   -3.0612285764E+00   -3.0534391426E+00   -3.0456892628E+00   -3.0379786368E+00
   -3.0303069629E+00   -3.0226738953E+00   -3.0150791960E+00   -3.0075225788E+00
   -3.0000037579E+00   -2.9925224327E+00   -2.9850782999E+00   -2.9776711222E+00
   -2.9703006269E+00   -2.9629665414E+00   -2.9556685696E+00   -2.9484064423E+00
   -2.9411799253E+00   -2.9339887586E+00   -2.9268326822E+00   -2.9197114070E+00
   -2.9126246906E+00   -2.9055723039E+00   -2.8985539990E+00   -2.8915695281E+00
   -2.8846186114E+00   -2.8777010259E+00   -2.8708165501E+00   -2.8639649476E+00
   -2.8571459821E+00   -2.8503593855E+00   -2.8436049471E+00   -2.8368824554E+00
   -2.8301916849E+00   -2.8235324105E+00   -2.8169043776E+00   -2.8103073816E+00
   -2.8037412228E+00   -2.7972056866E+00   -2.7907005581E+00   -2.7842255984E+00
   -2.7777806027E+00   -2.7713653858E+00   -2.7649797426E+00   -2.7586234686E+00
   -2.7522963423E+00   -2.7459981531E+00   -2.7397287317E+00   -2.7334878828E+00
   -2.7272754112E+00   -2.7210911148E+00   -2.7149347723E+00   -2.7088062317E+00
   -2.7027053068E+00   -2.6966318116E+00   -2.6905855597E+00   -2.6845663303E+00
   -2.6785739742E+00   -2.6726083192E+00   -2.6666691876E+00   -2.6607564021E+00
   -2.6548697647E+00   -2.6490091034E+00   -2.6431742681E+00   -2.6373650897E+00
   -2.6315813987E+00   -2.6258230223E+00   -2.6200897616E+00   -2.6143814893E+00
   -2.6086980441E+00   -2.6030392647E+00   -2.5974049899E+00   -2.5917950349E+00
   -2.5862092517E+00   -2.5806475011E+00   -2.5751096291E+00   -2.5695954820E+00
   -2.5641049034E+00   -2.5586377088E+00   -2.5531937851E+00   -2.5477729858E+00
   -2.5423751641E+00   -2.5370001734E+00   -2.5316478508E+00   -2.5263180492E+00
   -2.5210106484E+00   -2.5157255088E+00   -2.5104624904E+00   -2.5052214535E+00
   -2.5000022313E+00   -2.4948047077E+00   -2.4896287575E+00   -2.4844742474E+00
   -2.4793410442E+00   -2.4742290138E+00   -2.4691379907E+00   -2.4640678807E+00
   -2.4590185568E+00   -2.4539898919E+00   -2.4489817588E+00   -2.4439940238E+00
   -2.4390265410E+00   -2.4340792158E+00   -2.4291519271E+00   -2.4242445537E+00
   -2.4193569743E+00   -2.4144890577E+00   -2.4096406721E+00   -2.4048117243E+00
   -2.4000020989E+00   -2.3952116804E+00   -2.3904403533E+00   -2.3856879907E+00
   -2.3809544695E+00   -2.3762397002E+00   -2.3715435728E+00   -2.3668659770E+00
   -2.3622068027E+00   -2.3575659299E+00   -2.3529432386E+00   -2.3483386452E+00
   -2.3437520445E+00   -2.3391833316E+00   -2.3346324014E+00   -2.3300991425E+00
   -2.3255834335E+00   -2.3210851981E+00   -2.3166043362E+00   -2.3121407476E+00
   -2.3076943323E+00   -2.3032649891E+00   -2.2988525908E+00   -2.2944570701E+00
   -2.2900783317E+00   -2.2857162800E+00   -2.2813708196E+00   -2.2770418551E+00
   -2.2727292684E+00   -2.2684329837E+00   -2.2641529164E+00   -2.2598889755E+00
   -2.2556410699E+00   -2.2514091088E+00   -2.2471929879E+00   -2.2429926159E+00
   -2.2388079214E+00   -2.2346388175E+00   -2.2304852177E+00   -2.2263470350E+00
   -2.2222241812E+00   -2.2181165454E+00   -2.2140240707E+00   -2.2099466744E+00
   -2.2058842738E+00   -2.2018367861E+00   -2.1978041286E+00   -2.1937862030E+00
   -2.1897829329E+00   -2.1857942508E+00   -2.1818200780E+00   -2.1778603354E+00
   -2.1739149444E+00   -2.1699838255E+00   -2.1660668748E+00   -2.1621640426E+00
   -2.1582752539E+00   -2.1544004333E+00   -2.1505395057E+00   -2.1466923959E+00
   -2.1428590188E+00   -2.1390392945E+00   -2.1352331673E+00   -2.1314405653E+00
   -2.1276614170E+00   -2.1238956507E+00   -2.1201431947E+00   -2.1164039604E+00
   -2.1126778867E+00   -2.1089649138E+00   -2.1052649733E+00   -2.1015779968E+00
   -2.0979039160E+00   -2.0942426626E+00   -2.0905941468E+00   -2.0869583212E+00
   -2.0833351239E+00   -2.0797244895E+00   -2.0761263531E+00   -2.0725406494E+00
   -2.0689673132E+00   -2.0654062558E+00   -2.0618574385E+00   -2.0583207993E+00
   -2.0547962760E+00   -2.0512838065E+00   -2.0477833287E+00   -2.0442947797E+00
   -2.0408180758E+00   -2.0373531802E+00   -2.0339000336E+00   -2.0304585767E+00
   -2.0270287505E+00   -2.0236104956E+00   -2.0202037528E+00   -2.0168084404E+00
   -2.0134245242E+00   -2.0100519478E+00   -2.0066906547E+00   -2.0033405886E+00
   -2.0000016930E+00   -1.9966739113E+00
  </PP_LOCAL>
 <PP_NONLOCAL>
   <PP_BETA.1
       type="real"
       size=" 602"
       columns="4"
       index="1"
       angular_momentum="0"
       cutoff_radius_index=" 216"
       cutoff_radius="    2.1500000000E+00" >
    0.0000000000E+00    3.7719018776E-02    7.5448052507E-02    1.1319673507E-01
    1.5097394124E-01    1.8878741477E-01    2.2664340554E-01    2.6454631872E-01
    3.0249837884E-01    3.4049931146E-01    3.7854604514E-01    4.1663243608E-01
    4.5474901803E-01    4.9288277933E-01    5.3101696934E-01    5.6913093595E-01
    6.0719999561E-01    6.4519533766E-01    6.8308396351E-01    7.2082866207E-01
    7.5838802175E-01    7.9571647964E-01    8.3276440770E-01    8.6947823616E-01
    9.0580061354E-01    9.4167060225E-01    9.7702391038E-01    1.0117931558E+00
    1.0459081639E+00    1.0792962955E+00    1.1118828041E+00    1.1435912196E+00
    1.1743437572E+00    1.2040617437E+00    1.2326660734E+00    1.2600776658E+00
    1.2862179530E+00    1.3110093537E+00    1.3343757889E+00    1.3562431647E+00
    1.3765398755E+00    1.3951972986E+00    1.4121502832E+00    1.4273376265E+00
    1.4407025372E+00    1.4521930806E+00    1.4617626033E+00    1.4693701327E+00
    1.4749807484E+00    1.4785659102E+00    1.4801037934E+00    1.4795795556E+00
    1.4769855311E+00    1.4723214646E+00    1.4655946657E+00    1.4568200295E+00
    1.4460202399E+00    1.4332255975E+00    1.4184741640E+00    1.4018114928E+00
    1.3832906504E+00    1.3629719024E+00    1.3409225397E+00    1.3172165790E+00
    1.2919344062E+00    1.2651624184E+00    1.2369925770E+00    1.2075219529E+00
    1.1768522280E+00    1.1450890917E+00    1.1123417145E+00    1.0787221241E+00
    1.0443446003E+00    1.0093249454E+00    9.7377980844E-01    9.3782604619E-01
    9.0157999790E-01    8.6515677943E-01    8.2866957897E-01    7.9222895987E-01
    7.5594217644E-01    7.1991250851E-01    6.8423862073E-01    6.4901396925E-01
    6.1432616807E-01    5.8025652407E-01    5.4687955156E-01    5.1426253346E-01
    4.8246512049E-01    4.5153907718E-01    4.2152804375E-01    3.9246739073E-01
    3.6438415846E-01    3.3729708743E-01    3.1121674470E-01    2.8614577872E-01
    2.6207929080E-01    2.3900391490E-01    2.1689525037E-01    1.9571695473E-01