<UPF version="2.0.1">
  <PP_INFO>

 This pseudopotential file has been produced using the code
 ONCVPSP  (Optimized Norm-Conservinng Vanderbilt PSeudopotential)
 scalar-relativistic version 2.1.1, 03/26/2014 by D. R. Hamann
 The code is available through a link at URL www.mat-simresearch.com.
 Documentation with the package provides a full discription of the
 input data below.


 While it is not required under the terms of the GNU GPL, it is
 suggested that you cite D. R. Hamann, Phys. Rev. B 88, 085117 (2013)
 in any publication using these pseudopotentials.


 Copyright 2015 The Regents of the University of California
 
 This work is licensed under the Creative Commons Attribution-ShareAlike 
 4.0 International License. To view a copy of this license, visit 
 http://creativecommons.org/licenses/by-sa/4.0/ or send a letter to 
 Creative Commons, PO Box 1866, Mountain View, CA 94042, USA.
 
 This pseudopotential is part of the Schlipf-Gygi norm-conserving 
 pseudopotential library. Its construction parameters were tuned to 
 reproduce materials of a training set with very high accuracy and 
 should be suitable as a general purpose pseudopotential to treat a 
 variety of different compounds. For details of the construction and 
 testing of the pseudopotential please refer to:
 
 [insert reference to paper here]
 
 We kindly ask that you include this reference in all publications 
 associated to this pseudopotential.


    <PP_INPUTFILE>
# ATOM AND REFERENCE CONFIGURATION
# atsym  z    nc    nv    iexc   psfile
  Sb 51.00     8     3     4      upf
#
#   n    l    f        energy (Ha)
    1    0    2.00
    2    0    2.00
    2    1    6.00
    3    0    2.00
    3    1    6.00
    3    2   10.00
    4    0    2.00
    4    1    6.00
    4    2   10.00
    5    0    2.00
    5    1    3.00
#
# PSEUDOPOTENTIAL AND OPTIMIZATION
# lmax
    2
#
#   l,   rc,     ep,   ncon, nbas, qcut
    0   2.48127  -0.47153    5    8   3.02802
    1   3.00305  -0.17743    5    8   4.18686
    2   3.54887  -1.23138    5    8   7.04986
#
# LOCAL POTENTIAL
# lloc, lpopt,  rc(5),   dvloc0
    4    5   1.84146      0.00000
#
# VANDERBILT-KLEINMAN-BYLANDER PROJECTORs
# l, nproj, debl
    0    2   1.64815
    1    2   0.33483
    2    2   1.25296
#
# MODEL CORE CHARGE
# icmod, fcfact
    0   0.00000
#
# LOG DERIVATIVE ANALYSIS
# epsh1, epsh2, depsh
   -5.00    3.00    0.02
#
# OUTPUT GRID
# rlmax, drl
    6.00    0.01
#
# TEST CONFIGURATIONS
# ncnf
    0
# nvcnf
#   n    l    f
    </PP_INPUTFILE>
  </PP_INFO>
  <!--                               -->
  <!-- END OF HUMAN READABLE SECTION -->
  <!--                               -->
    <PP_HEADER
       generated="Generated using ONCVPSP code by D. R. Hamann"
       author="Martin Schlipf and Francois Gygi"
       date="150415"
       comment=""
       element="Sb"
       pseudo_type="NC"
       relativistic="scalar"
       is_ultrasoft="F"
       is_paw="F"
       is_coulomb="F"
       has_so="F"
       has_wfc="F"
       has_gipaw="F"
       core_correction="F"
       functional="PBE"
       z_valence="   15.00"
       total_psenergy="  -7.03835290014E+01"
       rho_cutoff="   6.01000000000E+00"
       l_max="2"
       l_local="-1"
       mesh_size="   602"
       number_of_wfc="0"
       number_of_proj="6"/>
 <PP_MESH>
   <PP_R type="real"  size=" 602" columns="8">
    0.0000    0.0100    0.0200    0.0300    0.0400    0.0500    0.0600    0.0700
    0.0800    0.0900    0.1000    0.1100    0.1200    0.1300    0.1400    0.1500
    0.1600    0.1700    0.1800    0.1900    0.2000    0.2100    0.2200    0.2300
    0.2400    0.2500    0.2600    0.2700    0.2800    0.2900    0.3000    0.3100
    0.3200    0.3300    0.3400    0.3500    0.3600    0.3700    0.3800    0.3900
    0.4000    0.4100    0.4200    0.4300    0.4400    0.4500    0.4600    0.4700
    0.4800    0.4900    0.5000    0.5100    0.5200    0.5300    0.5400    0.5500
    0.5600    0.5700    0.5800    0.5900    0.6000    0.6100    0.6200    0.6300
    0.6400    0.6500    0.6600    0.6700    0.6800    0.6900    0.7000    0.7100
    0.7200    0.7300    0.7400    0.7500    0.7600    0.7700    0.7800    0.7900
    0.8000    0.8100    0.8200    0.8300    0.8400    0.8500    0.8600    0.8700
    0.8800    0.8900    0.9000    0.9100    0.9200    0.9300    0.9400    0.9500
    0.9600    0.9700    0.9800    0.9900    1.0000    1.0100    1.0200    1.0300
    1.0400    1.0500    1.0600    1.0700    1.0800    1.0900    1.1000    1.1100
    1.1200    1.1300    1.1400    1.1500    1.1600    1.1700    1.1800    1.1900
    1.2000    1.2100    1.2200    1.2300    1.2400    1.2500    1.2600    1.2700
    1.2800    1.2900    1.3000    1.3100    1.3200    1.3300    1.3400    1.3500
    1.3600    1.3700    1.3800    1.3900    1.4000    1.4100    1.4200    1.4300
    1.4400    1.4500    1.4600    1.4700    1.4800    1.4900    1.5000    1.5100
    1.5200    1.5300    1.5400    1.5500    1.5600    1.5700    1.5800    1.5900
    1.6000    1.6100    1.6200    1.6300    1.6400    1.6500    1.6600    1.6700
    1.6800    1.6900    1.7000    1.7100    1.7200    1.7300    1.7400    1.7500
    1.7600    1.7700    1.7800    1.7900    1.8000    1.8100    1.8200    1.8300
    1.8400    1.8500    1.8600    1.8700    1.8800    1.8900    1.9000    1.9100
    1.9200    1.9300    1.9400    1.9500    1.9600    1.9700    1.9800    1.9900
    2.0000    2.0100    2.0200    2.0300    2.0400    2.0500    2.0600    2.0700
    2.0800    2.0900    2.1000    2.1100    2.1200    2.1300    2.1400    2.1500
    2.1600    2.1700    2.1800    2.1900    2.2000    2.2100    2.2200    2.2300
    2.2400    2.2500    2.2600    2.2700    2.2800    2.2900    2.3000    2.3100
    2.3200    2.3300    2.3400    2.3500    2.3600    2.3700    2.3800    2.3900
    2.4000    2.4100    2.4200    2.4300    2.4400    2.4500    2.4600    2.4700
    2.4800    2.4900    2.5000    2.5100    2.5200    2.5300    2.5400    2.5500
    2.5600    2.5700    2.5800    2.5900    2.6000    2.6100    2.6200    2.6300
    2.6400    2.6500    2.6600    2.6700    2.6800    2.6900    2.7000    2.7100
    2.7200    2.7300    2.7400    2.7500    2.7600    2.7700    2.7800    2.7900
    2.8000    2.8100    2.8200    2.8300    2.8400    2.8500    2.8600    2.8700
    2.8800    2.8900    2.9000    2.9100    2.9200    2.9300    2.9400    2.9500
    2.9600    2.9700    2.9800    2.9900    3.0000    3.0100    3.0200    3.0300
    3.0400    3.0500    3.0600    3.0700    3.0800    3.0900    3.1000    3.1100
    3.1200    3.1300    3.1400    3.1500    3.1600    3.1700    3.1800    3.1900
    3.2000    3.2100    3.2200    3.2300    3.2400    3.2500    3.2600    3.2700
    3.2800    3.2900    3.3000    3.3100    3.3200    3.3300    3.3400    3.3500
    3.3600    3.3700    3.3800    3.3900    3.4000    3.4100    3.4200    3.4300
    3.4400    3.4500    3.4600    3.4700    3.4800    3.4900    3.5000    3.5100
    3.5200    3.5300    3.5400    3.5500    3.5600    3.5700    3.5800    3.5900
    3.6000    3.6100    3.6200    3.6300    3.6400    3.6500    3.6600    3.6700
    3.6800    3.6900    3.7000    3.7100    3.7200    3.7300    3.7400    3.7500
    3.7600    3.7700    3.7800    3.7900    3.8000    3.8100    3.8200    3.8300
    3.8400    3.8500    3.8600    3.8700    3.8800    3.8900    3.9000    3.9100
    3.9200    3.9300    3.9400    3.9500    3.9600    3.9700    3.9800    3.9900
    4.0000    4.0100    4.0200    4.0300    4.0400    4.0500    4.0600    4.0700
    4.0800    4.0900    4.1000    4.1100    4.1200    4.1300    4.1400    4.1500
    4.1600    4.1700    4.1800    4.1900    4.2000    4.2100    4.2200    4.2300
    4.2400    4.2500    4.2600    4.2700    4.2800    4.2900    4.3000    4.3100
    4.3200    4.3300    4.3400    4.3500    4.3600    4.3700    4.3800    4.3900
    4.4000    4.4100    4.4200    4.4300    4.4400    4.4500    4.4600    4.4700
    4.4800    4.4900    4.5000    4.5100    4.5200    4.5300    4.5400    4.5500
    4.5600    4.5700    4.5800    4.5900    4.6000    4.6100    4.6200    4.6300
    4.6400    4.6500    4.6600    4.6700    4.6800    4.6900    4.7000    4.7100
    4.7200    4.7300    4.7400    4.7500    4.7600    4.7700    4.7800    4.7900
    4.8000    4.8100    4.8200    4.8300    4.8400    4.8500    4.8600    4.8700
    4.8800    4.8900    4.9000    4.9100    4.9200    4.9300    4.9400    4.9500
    4.9600    4.9700    4.9800    4.9900    5.0000    5.0100    5.0200    5.0300
    5.0400    5.0500    5.0600    5.0700    5.0800    5.0900    5.1000    5.1100
    5.1200    5.1300    5.1400    5.1500    5.1600    5.1700    5.1800    5.1900
    5.2000    5.2100    5.2200    5.2300    5.2400    5.2500    5.2600    5.2700
    5.2800    5.2900    5.3000    5.3100    5.3200    5.3300    5.3400    5.3500
    5.3600    5.3700    5.3800    5.3900    5.4000    5.4100    5.4200    5.4300
    5.4400    5.4500    5.4600    5.4700    5.4800    5.4900    5.5000    5.5100
    5.5200    5.5300    5.5400    5.5500    5.5600    5.5700    5.5800    5.5900
    5.6000    5.6100    5.6200    5.6300    5.6400    5.6500    5.6600    5.6700
    5.6800    5.6900    5.7000    5.7100    5.7200    5.7300    5.7400    5.7500
    5.7600    5.7700    5.7800    5.7900    5.8000    5.8100    5.8200    5.8300
    5.8400    5.8500    5.8600    5.8700    5.8800    5.8900    5.9000    5.9100
    5.9200    5.9300    5.9400    5.9500    5.9600    5.9700    5.9800    5.9900
    6.0000    6.0100
   </PP_R>
   <PP_RAB type="real"  size=" 602" columns="8">
    0.0100    0.0100    0.0100    0.0100    0.0100    0.0100    0.0100    0.0100
    0.0100    0.0100    0.0100    0.0100    0.0100    0.0100    0.0100    0.0100
    0.0100    0.0100    0.0100    0.0100    0.0100    0.0100    0.0100    0.0100
    0.0100    0.0100    0.0100    0.0100    0.0100    0.0100    0.0100    0.0100
    0.0100    0.0100    0.0100    0.0100    0.0100    0.0100    0.0100    0.0100
    0.0100    0.0100    0.0100    0.0100    0.0100    0.0100    0.0100    0.0100
    0.0100    0.0100    0.0100    0.0100    0.0100    0.0100    0.0100    0.0100
    0.0100    0.0100    0.0100    0.0100    0.0100    0.0100    0.0100    0.0100
    0.0100    0.0100    0.0100    0.0100    0.0100    0.0100    0.0100    0.0100
    0.0100    0.0100    0.0100    0.0100    0.0100    0.0100    0.0100    0.0100
    0.0100    0.0100    0.0100    0.0100    0.0100    0.0100    0.0100    0.0100
    0.0100    0.0100    0.0100    0.0100    0.0100    0.0100    0.0100    0.0100
    0.0100    0.0100    0.0100    0.0100    0.0100    0.0100    0.0100    0.0100
    0.0100    0.0100    0.0100    0.0100    0.0100    0.0100    0.0100    0.0100
    0.0100    0.0100    0.0100    0.0100    0.0100    0.0100    0.0100    0.0100
    0.0100    0.0100    0.0100    0.0100    0.0100    0.0100    0.0100    0.0100
    0.0100    0.0100    0.0100    0.0100    0.0100    0.0100    0.0100    0.0100
    0.0100    0.0100    0.0100    0.0100    0.0100    0.0100    0.0100    0.0100
    0.0100    0.0100    0.0100    0.0100    0.0100    0.0100    0.0100    0.0100
    0.0100    0.0100    0.0100    0.0100    0.0100    0.0100    0.0100    0.0100
    0.0100    0.0100    0.0100    0.0100    0.0100    0.0100    0.0100    0.0100
    0.0100    0.0100    0.0100    0.0100    0.0100    0.0100    0.0100    0.0100
    0.0100    0.0100    0.0100    0.0100    0.0100    0.0100    0.0100    0.0100
    0.0100    0.0100    0.0100    0.0100    0.0100    0.0100    0.0100    0.0100
    0.0100    0.0100    0.0100    0.0100    0.0100    0.0100    0.0100    0.0100
    0.0100    0.0100    0.0100    0.0100    0.0100    0.0100    0.0100    0.0100
    0.0100    0.0100    0.0100    0.0100    0.0100    0.0100    0.0100    0.0100
    0.0100    0.0100    0.0100    0.0100    0.0100    0.0100    0.0100    0.0100
    0.0100    0.0100    0.0100    0.0100    0.0100    0.0100    0.0100    0.0100
    0.0100    0.0100    0.0100    0.0100    0.0100    0.0100    0.0100    0.0100
    0.0100    0.0100    0.0100    0.0100    0.0100    0.0100    0.0100    0.0100
    0.0100    0.0100    0.0100    0.0100    0.0100    0.0100    0.0100    0.0100
    0.0100    0.0100    0.0100    0.0100    0.0100    0.0100    0.0100    0.0100
    0.0100    0.0100    0.0100    0.0100    0.0100    0.0100    0.0100    0.0100
    0.0100    0.0100    0.0100    0.0100    0.0100    0.0100    0.0100    0.0100
    0.0100    0.0100    0.0100    0.0100    0.0100    0.0100    0.0100    0.0100
    0.0100    0.0100    0.0100    0.0100    0.0100    0.0100    0.0100    0.0100
    0.0100    0.0100    0.0100    0.0100    0.0100    0.0100    0.0100    0.0100
    0.0100    0.0100    0.0100    0.0100    0.0100    0.0100    0.0100    0.0100
    0.0100    0.0100    0.0100    0.0100    0.0100    0.0100    0.0100    0.0100
    0.0100    0.0100    0.0100    0.0100    0.0100    0.0100    0.0100    0.0100
    0.0100    0.0100    0.0100    0.0100    0.0100    0.0100    0.0100    0.0100
    0.0100    0.0100    0.0100    0.0100    0.0100    0.0100    0.0100    0.0100
    0.0100    0.0100    0.0100    0.0100    0.0100    0.0100    0.0100    0.0100
    0.0100    0.0100    0.0100    0.0100    0.0100    0.0100    0.0100    0.0100
    0.0100    0.0100    0.0100    0.0100    0.0100    0.0100    0.0100    0.0100
    0.0100    0.0100    0.0100    0.0100    0.0100    0.0100    0.0100    0.0100
    0.0100    0.0100    0.0100    0.0100    0.0100    0.0100    0.0100    0.0100
    0.0100    0.0100    0.0100    0.0100    0.0100    0.0100    0.0100    0.0100
    0.0100    0.0100    0.0100    0.0100    0.0100    0.0100    0.0100    0.0100
    0.0100    0.0100    0.0100    0.0100    0.0100    0.0100    0.0100    0.0100
    0.0100    0.0100    0.0100    0.0100    0.0100    0.0100    0.0100    0.0100
    0.0100    0.0100    0.0100    0.0100    0.0100    0.0100    0.0100    0.0100
    0.0100    0.0100    0.0100    0.0100    0.0100    0.0100    0.0100    0.0100
    0.0100    0.0100    0.0100    0.0100    0.0100    0.0100    0.0100    0.0100
    0.0100    0.0100    0.0100    0.0100    0.0100    0.0100    0.0100    0.0100
    0.0100    0.0100    0.0100    0.0100    0.0100    0.0100    0.0100    0.0100
    0.0100    0.0100    0.0100    0.0100    0.0100    0.0100    0.0100    0.0100
    0.0100    0.0100    0.0100    0.0100    0.0100    0.0100    0.0100    0.0100
    0.0100    0.0100    0.0100    0.0100    0.0100    0.0100    0.0100    0.0100
    0.0100    0.0100    0.0100    0.0100    0.0100    0.0100    0.0100    0.0100
    0.0100    0.0100    0.0100    0.0100    0.0100    0.0100    0.0100    0.0100
    0.0100    0.0100    0.0100    0.0100    0.0100    0.0100    0.0100    0.0100
    0.0100    0.0100    0.0100    0.0100    0.0100    0.0100    0.0100    0.0100
    0.0100    0.0100    0.0100    0.0100    0.0100    0.0100    0.0100    0.0100
    0.0100    0.0100    0.0100    0.0100    0.0100    0.0100    0.0100    0.0100
    0.0100    0.0100    0.0100    0.0100    0.0100    0.0100    0.0100    0.0100
    0.0100    0.0100    0.0100    0.0100    0.0100    0.0100    0.0100    0.0100
    0.0100    0.0100    0.0100    0.0100    0.0100    0.0100    0.0100    0.0100
    0.0100    0.0100    0.0100    0.0100    0.0100    0.0100    0.0100    0.0100
    0.0100    0.0100    0.0100    0.0100    0.0100    0.0100    0.0100    0.0100
    0.0100    0.0100    0.0100    0.0100    0.0100    0.0100    0.0100    0.0100
    0.0100    0.0100    0.0100    0.0100    0.0100    0.0100    0.0100    0.0100
    0.0100    0.0100    0.0100    0.0100    0.0100    0.0100    0.0100    0.0100
    0.0100    0.0100    0.0100    0.0100    0.0100    0.0100    0.0100    0.0100
    0.0100    0.0100
   </PP_RAB>
 </PP_MESH>
  <PP_LOCAL type="real"  size=" 602" columns="4">
   -3.4551662583E+01   -3.3035462390E+01   -3.3709159546E+01   -3.5136888008E+01
   -3.5882781729E+01   -3.4602778251E+01   -3.3108671386E+01   -3.2526558746E+01
   -3.2464090815E+01   -3.2523684957E+01   -3.2572889390E+01   -3.2592706388E+01
   -3.2590109840E+01   -3.2573186367E+01   -3.2547202052E+01   -3.2515185736E+01
   -3.2478870404E+01   -3.2439313805E+01   -3.2397238939E+01   -3.2353208522E+01
   -3.2307711053E+01   -3.2261201792E+01   -3.2214120708E+01   -3.2166898431E+01
   -3.2119955435E+01   -3.2073696962E+01   -3.2028504801E+01   -3.1984726638E+01
   -3.1942663320E+01   -3.1902554628E+01   -3.1864564265E+01   -3.1828764775E+01
   -3.1795123567E+01   -3.1763491398E+01   -3.1733594388E+01   -3.1705030543E+01
   -3.1677272972E+01   -3.1649679064E+01   -3.1621506928E+01   -3.1591938883E+01
   -3.1560110501E+01   -3.1525144297E+01   -3.1486186233E+01   -3.1442442484E+01
   -3.1393214254E+01   -3.1337928145E+01   -3.1276160974E+01   -3.1207655829E+01
   -3.1132329672E+01   -3.1050271586E+01   -3.0961731485E+01   -3.0867104314E+01
   -3.0766902700E+01   -3.0661728347E+01   -3.0552242436E+01   -3.0439132463E+01
   -3.0323084268E+01   -3.0204756552E+01   -3.0084760340E+01   -2.9963645400E+01
   -2.9841889304E+01   -2.9719897607E+01   -2.9597999578E+01   -2.9476456951E+01
   -2.9355469103E+01   -2.9235179468E+01   -2.9115686309E+01   -2.8997050508E+01
   -2.8879301765E+01   -2.8762446909E+01   -2.8646475110E+01   -2.8531362510E+01
   -2.8417075669E+01   -2.8303574460E+01   -2.8190814098E+01   -2.8078746416E+01
   -2.7967320705E+01   -2.7856484160E+01   -2.7746182034E+01   -2.7636357605E+01
   -2.7526951956E+01   -2.7417903769E+01   -2.7309149069E+01   -2.7200621016E+01
   -2.7092249769E+01   -2.6983962476E+01   -2.6875683390E+01   -2.6767334160E+01
   -2.6658834283E+01   -2.6550101738E+01   -2.6441053785E+01   -2.6331607894E+01
   -2.6221682900E+01   -2.6111200168E+01   -2.6000084865E+01   -2.5888267229E+01
   -2.5775683815E+01   -2.5662278653E+01   -2.5548004275E+01   -2.5432822479E+01
   -2.5316704794E+01   -2.5199634073E+01   -2.5081603477E+01   -2.4962616778E+01
   -2.4842688051E+01   -2.4721840862E+01   -2.4600108347E+01   -2.4477532381E+01
   -2.4354161752E+01   -2.4230051497E+01   -2.4105261600E+01   -2.3979856992E+01
   -2.3853905273E+01   -2.3727475993E+01   -2.3600639947E+01   -2.3473468391E+01
   -2.3346031917E+01   -2.3218400122E+01   -2.3090641482E+01   -2.2962821759E+01
   -2.2835004680E+01   -2.2707251974E+01   -2.2579622092E+01   -2.2452170640E+01
   -2.2324951109E+01   -2.2198013932E+01   -2.2071406368E+01   -2.1945173908E+01
   -2.1819359277E+01   -2.1694002303E+01   -2.1569141505E+01   -2.1444812776E+01
   -2.1321049796E+01   -2.1197885329E+01   -2.1075349471E+01   -2.0953471007E+01
   -2.0832277902E+01   -2.0711795502E+01   -2.0592048792E+01   -2.0473061195E+01
   -2.0354854555E+01   -2.0237450533E+01   -2.0120868473E+01   -2.0005127514E+01
   -1.9890245471E+01   -1.9776238776E+01   -1.9663123759E+01   -1.9550914420E+01
   -1.9439625000E+01   -1.9329267748E+01   -1.9219854394E+01   -1.9111395615E+01
   -1.9003900521E+01   -1.8897378170E+01   -1.8791835052E+01   -1.8687278449E+01
   -1.8583712464E+01   -1.8481142010E+01   -1.8379569280E+01   -1.8278996621E+01
   -1.8179424290E+01   -1.8080852083E+01   -1.7983278293E+01   -1.7886700234E+01
   -1.7791114215E+01   -1.7696515192E+01   -1.7602897485E+01   -1.7510253857E+01
   -1.7418576668E+01   -1.7327856688E+01   -1.7238084376E+01   -1.7149248736E+01
   -1.7061338414E+01   -1.6974340887E+01   -1.6888243114E+01   -1.6803031268E+01
   -1.6718690772E+01   -1.6635206701E+01   -1.6552563102E+01   -1.6470744122E+01
   -1.6389732580E+01   -1.6309511834E+01   -1.6230063568E+01   -1.6151370399E+01
   -1.6073413221E+01   -1.5996173038E+01   -1.5919632067E+01   -1.5843771401E+01
   -1.5768574773E+01   -1.5694026140E+01   -1.5620110118E+01   -1.5546813547E+01
   -1.5474121864E+01   -1.5402024192E+01   -1.5330507480E+01   -1.5259561811E+01
   -1.5189176340E+01   -1.5119341270E+01   -1.5050047623E+01   -1.4981285851E+01
   -1.4913047965E+01   -1.4845325157E+01   -1.4778109483E+01   -1.4711392884E+01
   -1.4645167312E+01   -1.4579424881E+01   -1.4514157687E+01   -1.4449357670E+01
   -1.4385016866E+01   -1.4321127206E+01   -1.4257680531E+01   -1.4194668708E+01
   -1.4132083670E+01   -1.4069917170E+01   -1.4008161280E+01   -1.3946808363E+01
   -1.3885850008E+01   -1.3825279677E+01   -1.3765089824E+01   -1.3705273508E+01
   -1.3645825434E+01   -1.3586738406E+01   -1.3528008342E+01   -1.3469630808E+01
   -1.3411600187E+01   -1.3353915136E+01   -1.3296571868E+01   -1.3239568117E+01
   -1.3182903783E+01   -1.3126576392E+01   -1.3070586740E+01   -1.3014935626E+01
   -1.2959622164E+01   -1.2904649114E+01   -1.2850017773E+01   -1.2795729395E+01
   -1.2741786784E+01   -1.2688192030E+01   -1.2634947365E+01   -1.2582055278E+01
   -1.2529518350E+01   -1.2477338711E+01   -1.2425518288E+01   -1.2374059763E+01
   -1.2322964402E+01   -1.2272233400E+01   -1.2221869099E+01   -1.2171871584E+01
   -1.2122241237E+01   -1.2072979630E+01   -1.2024085831E+01   -1.1975559453E+01
   -1.1927401191E+01   -1.1879609338E+01   -1.1832182788E+01   -1.1785121443E+01
   -1.1738422930E+01   -1.1692085414E+01   -1.1646107863E+01   -1.1600487586E+01
   -1.1555222179E+01   -1.1510309880E+01   -1.1465747782E+01   -1.1421533006E+01
   -1.1377663147E+01   -1.1334135207E+01   -1.1290945995E+01   -1.1248092654E+01
   -1.1205572114E+01   -1.1163381019E+01   -1.1121516218E+01   -1.1079974565E+01
   -1.1038752663E+01   -1.0997847228E+01   -1.0957255003E+01   -1.0916972652E+01
   -1.0876996869E+01   -1.0837324307E+01   -1.0797951710E+01   -1.0758875819E+01
   -1.0720093307E+01   -1.0681600913E+01   -1.0643395495E+01   -1.0605473832E+01
   -1.0567832597E+01   -1.0530468803E+01   -1.0493379324E+01   -1.0456560919E+01
   -1.0420010587E+01   -1.0383725352E+01   -1.0347702136E+01   -1.0311937844E+01
   -1.0276429669E+01   -1.0241174670E+01   -1.0206169774E+01   -1.0171412203E+01
   -1.0136899152E+01   -1.0102627716E+01   -1.0068594972E+01   -1.0034798333E+01
   -1.0001235058E+01   -9.9679021779E+00   -9.9347971815E+00   -9.9019175854E+00
   -9.8692607700E+00   -9.8368238754E+00   -9.8046048127E+00   -9.7726011704E+00
   -9.7408104075E+00   -9.7092301386E+00   -9.6778582432E+00   -9.6466924410E+00
   -9.6157302138E+00   -9.5849695448E+00   -9.5544083775E+00   -9.5240445689E+00
   -9.4938757066E+00   -9.4639000667E+00   -9.4341156435E+00   -9.4045203592E+00
   -9.3751120879E+00   -9.3458891700E+00   -9.3168497255E+00   -9.2879917556E+00
   -9.2593133803E+00   -9.2308130024E+00   -9.2024888595E+00   -9.1743390416E+00
   -9.1463618668E+00   -9.1185558058E+00   -9.0909192051E+00   -9.0634502522E+00
   -9.0361474175E+00   -9.0090092450E+00   -8.9820341822E+00   -8.9552205185E+00
   -8.9285668362E+00   -8.9020717575E+00   -8.8757338222E+00   -8.8495514247E+00
   -8.8235232237E+00   -8.7976479231E+00   -8.7719241471E+00   -8.7463503964E+00
   -8.7209253756E+00   -8.6956478731E+00   -8.6705165898E+00   -8.6455301325E+00
   -8.6206872271E+00   -8.5959867472E+00   -8.5714274640E+00   -8.5470080894E+00
   -8.5227273508E+00   -8.4985842063E+00   -8.4745774911E+00   -8.4507060210E+00
   -8.4269685108E+00   -8.4033639986E+00   -8.3798913771E+00   -8.3565495390E+00
   -8.3333372460E+00   -8.3102535424E+00   -8.2872973959E+00   -8.2644677514E+00
   -8.2417634713E+00   -8.2191835395E+00   -8.1967270188E+00   -8.1743929029E+00
   -8.1521801581E+00   -8.1300876956E+00   -8.1081146734E+00   -8.0862601321E+00
   -8.0645231119E+00   -8.0429025434E+00   -8.0213975768E+00   -8.0000073309E+00
   -7.9787308907E+00   -7.9575672983E+00   -7.9365155968E+00   -7.9155750110E+00
   -7.8947446686E+00   -7.8740236971E+00   -7.8534111178E+00   -7.8329061655E+00
   -7.8125080385E+00   -7.7922159052E+00   -7.7720289054E+00   -7.7519461383E+00
   -7.7319669154E+00   -7.7120904437E+00   -7.6923159302E+00   -7.6726425055E+00
   -7.6530694177E+00   -7.6335959663E+00   -7.6142213951E+00   -7.5949449479E+00
   -7.5757657560E+00   -7.5566831927E+00   -7.5376965507E+00   -7.5188051091E+00
   -7.5000081276E+00   -7.4813048048E+00   -7.4626945573E+00   -7.4441766979E+00
   -7.4257505390E+00   -7.4074153494E+00   -7.3891704176E+00   -7.3710151667E+00
   -7.3529489413E+00   -7.3349710860E+00   -7.3170808855E+00   -7.2992776987E+00
   -7.2815609607E+00   -7.2639300468E+00   -7.2463843319E+00   -7.2289231229E+00
   -7.2115458306E+00   -7.1942519082E+00   -7.1770407599E+00   -7.1599117898E+00
   -7.1428643323E+00   -7.1258978331E+00   -7.1090117688E+00   -7.0922055714E+00
   -7.0754786727E+00   -7.0588304402E+00   -7.0422603378E+00   -7.0257678712E+00
   -7.0093524987E+00   -6.9930136789E+00   -6.9767508168E+00   -6.9605633797E+00
   -6.9444509073E+00   -6.9284128831E+00   -6.9124487909E+00   -6.8965580786E+00
   -6.8807402021E+00   -6.8649947400E+00   -6.8493211998E+00   -6.8337190891E+00
   -6.8181879037E+00   -6.8027270751E+00   -6.7873362241E+00   -6.7720148815E+00
   -6.7567625778E+00   -6.7415788436E+00   -6.7264631255E+00   -6.7114150392E+00
   -6.6964341539E+00   -6.6815200220E+00   -6.6666721961E+00   -6.6518901794E+00
   -6.6371735332E+00   -6.6225218811E+00   -6.6079347963E+00   -6.5934118522E+00
   -6.5789526135E+00   -6.5645565768E+00   -6.5502234220E+00   -6.5359527422E+00
   -6.5217441307E+00   -6.5075971806E+00   -6.4935114267E+00   -6.4794864956E+00
   -6.4655220357E+00   -6.4516176593E+00   -6.4377729784E+00   -6.4239875977E+00
   -6.4102610545E+00   -6.3965930625E+00   -6.3829832518E+00   -6.3694312528E+00
   -6.3559366955E+00   -6.3424991669E+00   -6.3291183012E+00   -6.3157937931E+00
   -6.3025252899E+00   -6.2893124392E+00   -6.2761548884E+00   -6.2630522142E+00
   -6.2500041306E+00   -6.2370103185E+00   -6.2240704418E+00   -6.2111841644E+00
   -6.1983511441E+00   -6.1855709729E+00   -6.1728434090E+00   -6.1601681319E+00
   -6.1475448211E+00   -6.1349731562E+00   -6.1224527945E+00   -6.1099833798E+00
   -6.0975646681E+00   -6.0851963538E+00   -6.0728781314E+00   -6.0606096954E+00
   -6.0483907084E+00   -6.0362208515E+00   -6.0240998838E+00   -6.0120275139E+00
   -6.0000034506E+00   -5.9880274026E+00   -5.9760990432E+00   -5.9642180771E+00
   -5.9523842715E+00   -5.9405973488E+00   -5.9288570311E+00   -5.9171630409E+00
   -5.9055150673E+00   -5.8939128253E+00   -5.8823560956E+00   -5.8708446133E+00
   -5.8593781137E+00   -5.8479563320E+00   -5.8365789781E+00   -5.8252457651E+00
   -5.8139564918E+00   -5.8027109056E+00   -5.7915087542E+00   -5.7803497850E+00
   -5.7692337333E+00   -5.7581602988E+00   -5.7471293027E+00   -5.7361405042E+00
   -5.7251936627E+00   -5.7142885374E+00   -5.7034248877E+00   -5.6926024061E+00
   -5.6818209234E+00   -5.6710802156E+00   -5.6603800531E+00   -5.6497202065E+00
   -5.6391004463E+00   -5.6285204994E+00   -5.6179801585E+00   -5.6074792327E+00
   -5.5970175031E+00   -5.5865947508E+00   -5.5762107573E+00   -5.5658652878E+00
   -5.5555580879E+00   -5.5452890026E+00   -5.5350578231E+00   -5.5248643411E+00
   -5.5147083478E+00   -5.5045896346E+00   -5.4945079417E+00   -5.4844631024E+00
   -5.4744549344E+00   -5.4644832388E+00   -5.4545478168E+00   -5.4446484694E+00
   -5.4347849833E+00   -5.4249571243E+00   -5.4151647544E+00   -5.4054076839E+00
   -5.3956857234E+00   -5.3859986831E+00   -5.3763463735E+00   -5.3667285663E+00
   -5.3571450893E+00   -5.3475957881E+00   -5.3380804818E+00   -5.3285989897E+00
   -5.3191511310E+00   -5.3097367250E+00   -5.3003555347E+00   -5.2910074361E+00
   -5.2816922636E+00   -5.2724098448E+00   -5.2631600075E+00   -5.2539425791E+00
   -5.2447573804E+00   -5.2356041926E+00   -5.2264829054E+00   -5.2173933547E+00
   -5.2083353761E+00   -5.1993088052E+00   -5.1903134778E+00   -5.1813492144E+00
   -5.1724158225E+00   -5.1635131905E+00   -5.1546411617E+00   -5.1457995795E+00
   -5.1369882872E+00   -5.1282071281E+00   -5.1194559275E+00   -5.1107345081E+00
   -5.1020427613E+00   -5.0933805377E+00   -5.0847476880E+00   -5.0761440628E+00
   -5.0675695127E+00   -5.0590238724E+00   -5.0505069689E+00   -5.0420187011E+00
   -5.0335589267E+00   -5.0251275032E+00   -5.0167242883E+00   -5.0083491396E+00
   -5.0000019054E+00   -4.9916824068E+00
  </PP_LOCAL>
 <PP_NONLOCAL>
   <PP_BETA.1
       type="real"
       size=" 602"
       columns="4"
       index="1"
       angular_momentum="0"
       cutoff_radius_index=" 358"
       cutoff_radius="    3.5700000000E+00" >
    0.0000000000E+00   -2.4649617857E-02   -4.9289710900E-02   -7.3910754777E-02
   -9.8503226061E-02   -1.2305760273E-01   -1.4756436467E-01   -1.7201399416E-01
   -1.9639697646E-01   -2.2070380034E-01   -2.4492495871E-01   -2.6905094926E-01
   -2.9307227512E-01   -3.1697944561E-01   -3.4076297696E-01   -3.6441339312E-01
   -3.8792122660E-01   -4.1127701933E-01   -4.3447132354E-01   -4.5749470270E-01
   -4.8033773245E-01   -5.0299100155E-01   -5.2544511287E-01   -5.4769068436E-01
   -5.6971834997E-01   -5.9151876067E-01   -6.1308258535E-01   -6.3440051175E-01
   -6.5546324733E-01   -6.7626152014E-01   -6.9678607961E-01   -7.1702769736E-01
   -7.3697716788E-01   -7.5662530922E-01   -7.7596296363E-01   -7.9498099816E-01
   -8.1367030521E-01   -8.3202180303E-01   -8.5002643630E-01   -8.6767517654E-01
   -8.8495902269E-01   -9.0186900162E-01   -9.1839616872E-01   -9.3453160858E-01
   -9.5026643567E-01   -9.6559179531E-01   -9.8049886467E-01   -9.9497885402E-01
   -1.0090230082E+00   -1.0226226085E+00   -1.0357689742E+00   -1.0484534660E+00
   -1.0606674879E+00   -1.0724024909E+00   -1.0836499772E+00   -1.0944015036E+00
   -1.1046486879E+00   -1.1143832130E+00   -1.1235968350E+00   -1.1322813885E+00
   -1.1404287970E+00   -1.1480310785E+00   -1.1550803593E+00   -1.1615688814E+00
   -1.1674890151E+00   -1.1728332742E+00   -1.1775943268E+00   -1.1817650097E+00
   -1.1853383496E+00   -1.1883075760E+00   -1.1906661403E+00   -1.1924077342E+00
   -1.1935263136E+00   -1.1940161199E+00   -1.1938717010E+00   -1.1930879358E+00
   -1.1916600600E+00   -1.1895836917E+00   -1.1868548586E+00   -1.1834700238E+00
   -1.1794261202E+00   -1.1747205752E+00   -1.1693513412E+00   -1.1633169264E+00
   -1.1566164258E+00   -1.1492495525E+00   -1.1412166684E+00   -1.1325188158E+00
   -1.1231577483E+00   -1.1131359616E+00   -1.1024567216E+00   -1.0911240934E+00