<UPF version="2.0.1">
  <PP_INFO>

 This pseudopotential file has been produced using the code
 ONCVPSP  (Optimized Norm-Conservinng Vanderbilt PSeudopotential)
 scalar-relativistic version 2.1.1, 03/26/2014 by D. R. Hamann
 The code is available through a link at URL www.mat-simresearch.com.
 Documentation with the package provides a full discription of the
 input data below.


 While it is not required under the terms of the GNU GPL, it is
 suggested that you cite D. R. Hamann, Phys. Rev. B 88, 085117 (2013)
 in any publication using these pseudopotentials.


 Copyright 2015 The Regents of the University of California
 
 This work is licensed under the Creative Commons Attribution-ShareAlike 
 4.0 International License. To view a copy of this license, visit 
 http://creativecommons.org/licenses/by-sa/4.0/ or send a letter to 
 Creative Commons, PO Box 1866, Mountain View, CA 94042, USA.
 
 This pseudopotential is part of the Schlipf-Gygi norm-conserving 
 pseudopotential library. Its construction parameters were tuned to 
 reproduce materials of a training set with very high accuracy and 
 should be suitable as a general purpose pseudopotential to treat a 
 variety of different compounds. For details of the construction and 
 testing of the pseudopotential please refer to:
 
 [insert reference to paper here]
 
 We kindly ask that you include this reference in all publications 
 associated to this pseudopotential.


    <PP_INPUTFILE>
# ATOM AND REFERENCE CONFIGURATION
# atsym  z    nc    nv    iexc   psfile
  Sc 21.00     3     4     4      upf
#
#   n    l    f        energy (Ha)
    1    0    2.00
    2    0    2.00
    2    1    6.00
    3    0    2.00
    3    1    6.00
    4    0    2.00
    3    2    1.00
#
# PSEUDOPOTENTIAL AND OPTIMIZATION
# lmax
    2
#
#   l,   rc,     ep,   ncon, nbas, qcut
    0   2.91081  -2.02265    5    8   3.57171
    1   2.94574  -1.23568    5    8   6.69226
    2   2.37654  -0.11882    5    8   6.43528
#
# LOCAL POTENTIAL
# lloc, lpopt,  rc(5),   dvloc0
    4    5   1.91733      0.00000
#
# VANDERBILT-KLEINMAN-BYLANDER PROJECTORs
# l, nproj, debl
    0    2   1.86892
    1    2   1.41496
    2    2   0.23043
#
# MODEL CORE CHARGE
# icmod, fcfact
    0   0.00000
#
# LOG DERIVATIVE ANALYSIS
# epsh1, epsh2, depsh
   -5.00    3.00    0.02
#
# OUTPUT GRID
# rlmax, drl
    6.00    0.01
#
# TEST CONFIGURATIONS
# ncnf
    0
# nvcnf
#   n    l    f
    </PP_INPUTFILE>
  </PP_INFO>
  <!--                               -->
  <!-- END OF HUMAN READABLE SECTION -->
  <!--                               -->
    <PP_HEADER
       generated="Generated using ONCVPSP code by D. R. Hamann"
       author="Martin Schlipf and Francois Gygi"
       date="150105"
       comment=""
       element="Sc"
       pseudo_type="NC"
       relativistic="scalar"
       is_ultrasoft="F"
       is_paw="F"
       is_coulomb="F"
       has_so="F"
       has_wfc="F"
       has_gipaw="F"
       core_correction="F"
       functional="PBE"
       z_valence="   11.00"
       total_psenergy="  -4.57762190370E+01"
       rho_cutoff="   6.01000000000E+00"
       l_max="2"
       l_local="-1"
       mesh_size="   602"
       number_of_wfc="0"
       number_of_proj="6"/>
 <PP_MESH>
   <PP_R type="real"  size=" 602" columns="8">
    0.0000    0.0100    0.0200    0.0300    0.0400    0.0500    0.0600    0.0700
    0.0800    0.0900    0.1000    0.1100    0.1200    0.1300    0.1400    0.1500
    0.1600    0.1700    0.1800    0.1900    0.2000    0.2100    0.2200    0.2300
    0.2400    0.2500    0.2600    0.2700    0.2800    0.2900    0.3000    0.3100
    0.3200    0.3300    0.3400    0.3500    0.3600    0.3700    0.3800    0.3900
    0.4000    0.4100    0.4200    0.4300    0.4400    0.4500    0.4600    0.4700
    0.4800    0.4900    0.5000    0.5100    0.5200    0.5300    0.5400    0.5500
    0.5600    0.5700    0.5800    0.5900    0.6000    0.6100    0.6200    0.6300
    0.6400    0.6500    0.6600    0.6700    0.6800    0.6900    0.7000    0.7100
    0.7200    0.7300    0.7400    0.7500    0.7600    0.7700    0.7800    0.7900
    0.8000    0.8100    0.8200    0.8300    0.8400    0.8500    0.8600    0.8700
    0.8800    0.8900    0.9000    0.9100    0.9200    0.9300    0.9400    0.9500
    0.9600    0.9700    0.9800    0.9900    1.0000    1.0100    1.0200    1.0300
    1.0400    1.0500    1.0600    1.0700    1.0800    1.0900    1.1000    1.1100
    1.1200    1.1300    1.1400    1.1500    1.1600    1.1700    1.1800    1.1900
    1.2000    1.2100    1.2200    1.2300    1.2400    1.2500    1.2600    1.2700
    1.2800    1.2900    1.3000    1.3100    1.3200    1.3300    1.3400    1.3500
    1.3600    1.3700    1.3800    1.3900    1.4000    1.4100    1.4200    1.4300
    1.4400    1.4500    1.4600    1.4700    1.4800    1.4900    1.5000    1.5100
    1.5200    1.5300    1.5400    1.5500    1.5600    1.5700    1.5800    1.5900
    1.6000    1.6100    1.6200    1.6300    1.6400    1.6500    1.6600    1.6700
    1.6800    1.6900    1.7000    1.7100    1.7200    1.7300    1.7400    1.7500
    1.7600    1.7700    1.7800    1.7900    1.8000    1.8100    1.8200    1.8300
    1.8400    1.8500    1.8600    1.8700    1.8800    1.8900    1.9000    1.9100
    1.9200    1.9300    1.9400    1.9500    1.9600    1.9700    1.9800    1.9900
    2.0000    2.0100    2.0200    2.0300    2.0400    2.0500    2.0600    2.0700
    2.0800    2.0900    2.1000    2.1100    2.1200    2.1300    2.1400    2.1500
    2.1600    2.1700    2.1800    2.1900    2.2000    2.2100    2.2200    2.2300
    2.2400    2.2500    2.2600    2.2700    2.2800    2.2900    2.3000    2.3100
    2.3200    2.3300    2.3400    2.3500    2.3600    2.3700    2.3800    2.3900
    2.4000    2.4100    2.4200    2.4300    2.4400    2.4500    2.4600    2.4700
    2.4800    2.4900    2.5000    2.5100    2.5200    2.5300    2.5400    2.5500
    2.5600    2.5700    2.5800    2.5900    2.6000    2.6100    2.6200    2.6300
    2.6400    2.6500    2.6600    2.6700    2.6800    2.6900    2.7000    2.7100
    2.7200    2.7300    2.7400    2.7500    2.7600    2.7700    2.7800    2.7900
    2.8000    2.8100    2.8200    2.8300    2.8400    2.8500    2.8600    2.8700
    2.8800    2.8900    2.9000    2.9100    2.9200    2.9300    2.9400    2.9500
    2.9600    2.9700    2.9800    2.9900    3.0000    3.0100    3.0200    3.0300
    3.0400    3.0500    3.0600    3.0700    3.0800    3.0900    3.1000    3.1100
    3.1200    3.1300    3.1400    3.1500    3.1600    3.1700    3.1800    3.1900
    3.2000    3.2100    3.2200    3.2300    3.2400    3.2500    3.2600    3.2700
    3.2800    3.2900    3.3000    3.3100    3.3200    3.3300    3.3400    3.3500
    3.3600    3.3700    3.3800    3.3900    3.4000    3.4100    3.4200    3.4300
    3.4400    3.4500    3.4600    3.4700    3.4800    3.4900    3.5000    3.5100
    3.5200    3.5300    3.5400    3.5500    3.5600    3.5700    3.5800    3.5900
    3.6000    3.6100    3.6200    3.6300    3.6400    3.6500    3.6600    3.6700
    3.6800    3.6900    3.7000    3.7100    3.7200    3.7300    3.7400    3.7500
    3.7600    3.7700    3.7800    3.7900    3.8000    3.8100    3.8200    3.8300
    3.8400    3.8500    3.8600    3.8700    3.8800    3.8900    3.9000    3.9100
    3.9200    3.9300    3.9400    3.9500    3.9600    3.9700    3.9800    3.9900
    4.0000    4.0100    4.0200    4.0300    4.0400    4.0500    4.0600    4.0700
    4.0800    4.0900    4.1000    4.1100    4.1200    4.1300    4.1400    4.1500
    4.1600    4.1700    4.1800    4.1900    4.2000    4.2100    4.2200    4.2300
    4.2400    4.2500    4.2600    4.2700    4.2800    4.2900    4.3000    4.3100
    4.3200    4.3300    4.3400    4.3500    4.3600    4.3700    4.3800    4.3900
    4.4000    4.4100    4.4200    4.4300    4.4400    4.4500    4.4600    4.4700
    4.4800    4.4900    4.5000    4.5100    4.5200    4.5300    4.5400    4.5500
    4.5600    4.5700    4.5800    4.5900    4.6000    4.6100    4.6200    4.6300
    4.6400    4.6500    4.6600    4.6700    4.6800    4.6900    4.7000    4.7100
    4.7200    4.7300    4.7400    4.7500    4.7600    4.7700    4.7800    4.7900
    4.8000    4.8100    4.8200    4.8300    4.8400    4.8500    4.8600    4.8700
    4.8800    4.8900    4.9000    4.9100    4.9200    4.9300    4.9400    4.9500
    4.9600    4.9700    4.9800    4.9900    5.0000    5.0100    5.0200    5.0300
    5.0400    5.0500    5.0600    5.0700    5.0800    5.0900    5.1000    5.1100
    5.1200    5.1300    5.1400    5.1500    5.1600    5.1700    5.1800    5.1900
    5.2000    5.2100    5.2200    5.2300    5.2400    5.2500    5.2600    5.2700
    5.2800    5.2900    5.3000    5.3100    5.3200    5.3300    5.3400    5.3500
    5.3600    5.3700    5.3800    5.3900    5.4000    5.4100    5.4200    5.4300
    5.4400    5.4500    5.4600    5.4700    5.4800    5.4900    5.5000    5.5100
    5.5200    5.5300    5.5400    5.5500    5.5600    5.5700    5.5800    5.5900
    5.6000    5.6100    5.6200    5.6300    5.6400    5.6500    5.6600    5.6700
    5.6800    5.6900    5.7000    5.7100    5.7200    5.7300    5.7400    5.7500
    5.7600    5.7700    5.7800    5.7900    5.8000    5.8100    5.8200    5.8300
    5.8400    5.8500    5.8600    5.8700    5.8800    5.8900    5.9000    5.9100
    5.9200    5.9300    5.9400    5.9500    5.9600    5.9700    5.9800    5.9900
    6.0000    6.0100
   </PP_R>
   <PP_RAB type="real"  size=" 602" columns="8">
    0.0100    0.0100    0.0100    0.0100    0.0100    0.0100    0.0100    0.0100
    0.0100    0.0100    0.0100    0.0100    0.0100    0.0100    0.0100    0.0100
    0.0100    0.0100    0.0100    0.0100    0.0100    0.0100    0.0100    0.0100
    0.0100    0.0100    0.0100    0.0100    0.0100    0.0100    0.0100    0.0100
    0.0100    0.0100    0.0100    0.0100    0.0100    0.0100    0.0100    0.0100
    0.0100    0.0100    0.0100    0.0100    0.0100    0.0100    0.0100    0.0100
    0.0100    0.0100    0.0100    0.0100    0.0100    0.0100    0.0100    0.0100
    0.0100    0.0100    0.0100    0.0100    0.0100    0.0100    0.0100    0.0100
    0.0100    0.0100    0.0100    0.0100    0.0100    0.0100    0.0100    0.0100
    0.0100    0.0100    0.0100    0.0100    0.0100    0.0100    0.0100    0.0100
    0.0100    0.0100    0.0100    0.0100    0.0100    0.0100    0.0100    0.0100
    0.0100    0.0100    0.0100    0.0100    0.0100    0.0100    0.0100    0.0100
    0.0100    0.0100    0.0100    0.0100    0.0100    0.0100    0.0100    0.0100
    0.0100    0.0100    0.0100    0.0100    0.0100    0.0100    0.0100    0.0100
    0.0100    0.0100    0.0100    0.0100    0.0100    0.0100    0.0100    0.0100
    0.0100    0.0100    0.0100    0.0100    0.0100    0.0100    0.0100    0.0100
    0.0100    0.0100    0.0100    0.0100    0.0100    0.0100    0.0100    0.0100
    0.0100    0.0100    0.0100    0.0100    0.0100    0.0100    0.0100    0.0100
    0.0100    0.0100    0.0100    0.0100    0.0100    0.0100    0.0100    0.0100
    0.0100    0.0100    0.0100    0.0100    0.0100    0.0100    0.0100    0.0100
    0.0100    0.0100    0.0100    0.0100    0.0100    0.0100    0.0100    0.0100
    0.0100    0.0100    0.0100    0.0100    0.0100    0.0100    0.0100    0.0100
    0.0100    0.0100    0.0100    0.0100    0.0100    0.0100    0.0100    0.0100
    0.0100    0.0100    0.0100    0.0100    0.0100    0.0100    0.0100    0.0100
    0.0100    0.0100    0.0100    0.0100    0.0100    0.0100    0.0100    0.0100
    0.0100    0.0100    0.0100    0.0100    0.0100    0.0100    0.0100    0.0100
    0.0100    0.0100    0.0100    0.0100    0.0100    0.0100    0.0100    0.0100
    0.0100    0.0100    0.0100    0.0100    0.0100    0.0100    0.0100    0.0100
    0.0100    0.0100    0.0100    0.0100    0.0100    0.0100    0.0100    0.0100
    0.0100    0.0100    0.0100    0.0100    0.0100    0.0100    0.0100    0.0100
    0.0100    0.0100    0.0100    0.0100    0.0100    0.0100    0.0100    0.0100
    0.0100    0.0100    0.0100    0.0100    0.0100    0.0100    0.0100    0.0100
    0.0100    0.0100    0.0100    0.0100    0.0100    0.0100    0.0100    0.0100
    0.0100    0.0100    0.0100    0.0100    0.0100    0.0100    0.0100    0.0100
    0.0100    0.0100    0.0100    0.0100    0.0100    0.0100    0.0100    0.0100
    0.0100    0.0100    0.0100    0.0100    0.0100    0.0100    0.0100    0.0100
    0.0100    0.0100    0.0100    0.0100    0.0100    0.0100    0.0100    0.0100
    0.0100    0.0100    0.0100    0.0100    0.0100    0.0100    0.0100    0.0100
    0.0100    0.0100    0.0100    0.0100    0.0100    0.0100    0.0100    0.0100
    0.0100    0.0100    0.0100    0.0100    0.0100    0.0100    0.0100    0.0100
    0.0100    0.0100    0.0100    0.0100    0.0100    0.0100    0.0100    0.0100
    0.0100    0.0100    0.0100    0.0100    0.0100    0.0100    0.0100    0.0100
    0.0100    0.0100    0.0100    0.0100    0.0100    0.0100    0.0100    0.0100
    0.0100    0.0100    0.0100    0.0100    0.0100    0.0100    0.0100    0.0100
    0.0100    0.0100    0.0100    0.0100    0.0100    0.0100    0.0100    0.0100
    0.0100    0.0100    0.0100    0.0100    0.0100    0.0100    0.0100    0.0100
    0.0100    0.0100    0.0100    0.0100    0.0100    0.0100    0.0100    0.0100
    0.0100    0.0100    0.0100    0.0100    0.0100    0.0100    0.0100    0.0100
    0.0100    0.0100    0.0100    0.0100    0.0100    0.0100    0.0100    0.0100
    0.0100    0.0100    0.0100    0.0100    0.0100    0.0100    0.0100    0.0100
    0.0100    0.0100    0.0100    0.0100    0.0100    0.0100    0.0100    0.0100
    0.0100    0.0100    0.0100    0.0100    0.0100    0.0100    0.0100    0.0100
    0.0100    0.0100    0.0100    0.0100    0.0100    0.0100    0.0100    0.0100
    0.0100    0.0100    0.0100    0.0100    0.0100    0.0100    0.0100    0.0100
    0.0100    0.0100    0.0100    0.0100    0.0100    0.0100    0.0100    0.0100
    0.0100    0.0100    0.0100    0.0100    0.0100    0.0100    0.0100    0.0100
    0.0100    0.0100    0.0100    0.0100    0.0100    0.0100    0.0100    0.0100
    0.0100    0.0100    0.0100    0.0100    0.0100    0.0100    0.0100    0.0100
    0.0100    0.0100    0.0100    0.0100    0.0100    0.0100    0.0100    0.0100
    0.0100    0.0100    0.0100    0.0100    0.0100    0.0100    0.0100    0.0100
    0.0100    0.0100    0.0100    0.0100    0.0100    0.0100    0.0100    0.0100
    0.0100    0.0100    0.0100    0.0100    0.0100    0.0100    0.0100    0.0100
    0.0100    0.0100    0.0100    0.0100    0.0100    0.0100    0.0100    0.0100
    0.0100    0.0100    0.0100    0.0100    0.0100    0.0100    0.0100    0.0100
    0.0100    0.0100    0.0100    0.0100    0.0100    0.0100    0.0100    0.0100
    0.0100    0.0100    0.0100    0.0100    0.0100    0.0100    0.0100    0.0100
    0.0100    0.0100    0.0100    0.0100    0.0100    0.0100    0.0100    0.0100
    0.0100    0.0100    0.0100    0.0100    0.0100    0.0100    0.0100    0.0100
    0.0100    0.0100    0.0100    0.0100    0.0100    0.0100    0.0100    0.0100
    0.0100    0.0100    0.0100    0.0100    0.0100    0.0100    0.0100    0.0100
    0.0100    0.0100    0.0100    0.0100    0.0100    0.0100    0.0100    0.0100
    0.0100    0.0100    0.0100    0.0100    0.0100    0.0100    0.0100    0.0100
    0.0100    0.0100    0.0100    0.0100    0.0100    0.0100    0.0100    0.0100
    0.0100    0.0100    0.0100    0.0100    0.0100    0.0100    0.0100    0.0100
    0.0100    0.0100    0.0100    0.0100    0.0100    0.0100    0.0100    0.0100
    0.0100    0.0100
   </PP_RAB>
 </PP_MESH>
  <PP_LOCAL type="real"  size=" 602" columns="4">
   -2.6058431516E+01   -2.6058365001E+01   -2.6058361485E+01   -2.6058189253E+01
   -2.6057616591E+01   -2.6056351797E+01   -2.6054069669E+01   -2.6050438295E+01
   -2.6045142996E+01   -2.6037905186E+01   -2.6028495094E+01   -2.6016738290E+01
   -2.6002516799E+01   -2.5985765969E+01   -2.5966468486E+01   -2.5944646761E+01
   -2.5920354776E+01   -2.5893670143E+01   -2.5864686894E+01   -2.5833509268E+01
   -2.5800246605E+01   -2.5765009310E+01   -2.5727905814E+01   -2.5689040362E+01
   -2.5648511514E+01   -2.5606411191E+01   -2.5562824155E+01   -2.5517827795E+01
   -2.5471492156E+01   -2.5423880108E+01   -2.5375047621E+01   -2.5325044110E+01
   -2.5273912799E+01   -2.5221691111E+01   -2.5168411031E+01   -2.5114099508E+01
   -2.5058778774E+01   -2.5002466720E+01   -2.4945177209E+01   -2.4886920377E+01
   -2.4827702948E+01   -2.4767528517E+01   -2.4706397825E+01   -2.4644309039E+01
   -2.4581258016E+01   -2.4517238573E+01   -2.4452242753E+01   -2.4386261091E+01
   -2.4319282885E+01   -2.4251296456E+01   -2.4182289425E+01   -2.4112248979E+01
   -2.4041162142E+01   -2.3969016039E+01   -2.3895798160E+01   -2.3821496613E+01
   -2.3746100379E+01   -2.3669599533E+01   -2.3591985490E+01   -2.3513251188E+01
   -2.3433391285E+01   -2.3352402354E+01   -2.3270282939E+01   -2.3187033817E+01
   -2.3102657975E+01   -2.3017160675E+01   -2.2930549623E+01   -2.2842834860E+01
   -2.2754028768E+01   -2.2664146076E+01   -2.2573203821E+01   -2.2481221209E+01
   -2.2388219547E+01   -2.2294222120E+01   -2.2199254082E+01   -2.2103342337E+01
   -2.2006515351E+01   -2.1908803023E+01   -2.1810236530E+01   -2.1710848171E+01
   -2.1610671223E+01   -2.1509739782E+01   -2.1408088630E+01   -2.1305753090E+01
   -2.1202768901E+01   -2.1099172098E+01   -2.0994998897E+01   -2.0890285592E+01
   -2.0785068465E+01   -2.0679383702E+01   -2.0573267314E+01   -2.0466755075E+01
   -2.0359882464E+01   -2.0252684611E+01   -2.0145196259E+01   -2.0037451725E+01
   -1.9929484869E+01   -1.9821329090E+01   -1.9713017249E+01   -1.9604581698E+01
   -1.9496054258E+01   -1.9387466202E+01   -1.9278848251E+01   -1.9170230586E+01
   -1.9061642803E+01   -1.8953113900E+01   -1.8844672318E+01   -1.8736345921E+01
   -1.8628162023E+01   -1.8520147321E+01   -1.8412327884E+01   -1.8304729219E+01
   -1.8197376261E+01   -1.8090293361E+01   -1.7983504152E+01   -1.7877031712E+01
   -1.7770898555E+01   -1.7665126531E+01   -1.7559736768E+01   -1.7454749812E+01
   -1.7350185707E+01   -1.7246063558E+01   -1.7142401912E+01   -1.7039218777E+01
   -1.6936531287E+01   -1.6834355856E+01   -1.6732708393E+01   -1.6631603926E+01
   -1.6531056667E+01   -1.6431080372E+01   -1.6331687811E+01   -1.6232890945E+01
   -1.6134701344E+01   -1.6037129363E+01   -1.5940184732E+01   -1.5843876744E+01
   -1.5748213289E+01   -1.5653201990E+01   -1.5558849562E+01   -1.5465161690E+01
   -1.5372143920E+01   -1.5279800324E+01   -1.5188134745E+01   -1.5097150237E+01
   -1.5006848857E+01   -1.4917232682E+01   -1.4828302310E+01   -1.4740058453E+01
   -1.4652500859E+01   -1.4565628893E+01   -1.4479441558E+01   -1.4393937121E+01
   -1.4309113932E+01   -1.4224969486E+01   -1.4141501470E+01   -1.4058706989E+01
   -1.3976583220E+01   -1.3895127061E+01   -1.3814335436E+01   -1.3734205168E+01
   -1.3654733176E+01   -1.3575916342E+01   -1.3497751786E+01   -1.3420236572E+01
   -1.3343368176E+01   -1.3267143950E+01   -1.3191561822E+01   -1.3116619521E+01
   -1.3042315450E+01   -1.2968647774E+01   -1.2895615343E+01   -1.2823216779E+01
   -1.2751451292E+01   -1.2680317936E+01   -1.2609816169E+01   -1.2539945394E+01
   -1.2470705180E+01   -1.2402095142E+01   -1.2334114825E+01   -1.2266763849E+01
   -1.2200041630E+01   -1.2133947512E+01   -1.2068480708E+01   -1.2003639954E+01
   -1.1939424221E+01   -1.1875831253E+01   -1.1812859779E+01   -1.1750506356E+01
   -1.1688768845E+01   -1.1627642993E+01   -1.1567125148E+01   -1.1507210462E+01
   -1.1447893201E+01   -1.1389168026E+01   -1.1331028288E+01   -1.1273467900E+01
   -1.1216480420E+01   -1.1160059598E+01   -1.1104198937E+01   -1.1048891918E+01
   -1.0994132034E+01   -1.0939912360E+01   -1.0886226331E+01   -1.0833066740E+01
   -1.0780426631E+01   -1.0728298822E+01   -1.0676675858E+01   -1.0625550576E+01
   -1.0574915225E+01   -1.0524762322E+01   -1.0475084202E+01   -1.0425873091E+01
   -1.0377121298E+01   -1.0328821059E+01   -1.0280964567E+01   -1.0233544156E+01
   -1.0186552260E+01   -1.0139980997E+01   -1.0093823274E+01   -1.0048071569E+01
   -1.0002718611E+01   -9.9577578040E+00   -9.9131817729E+00   -9.8689844028E+00
   -9.8251594810E+00   -9.7817002019E+00   -9.7386016764E+00   -9.6958579414E+00
   -9.6534636169E+00   -9.6114144657E+00   -9.5697050516E+00   -9.5283315275E+00
   -9.4872902326E+00   -9.4465763805E+00   -9.4061875087E+00   -9.3661203340E+00
   -9.3263712466E+00   -9.2869383917E+00   -9.2478190275E+00   -9.2090106168E+00
   -9.1705115270E+00   -9.1323196150E+00   -9.0944329241E+00   -9.0568496960E+00
   -9.0195681491E+00   -8.9825863206E+00   -8.9459021766E+00   -8.9095139481E+00
   -8.8734194006E+00   -8.8376162389E+00   -8.8021025660E+00   -8.7668757878E+00
   -8.7319332960E+00   -8.6972728992E+00   -8.6628917067E+00   -8.6287868289E+00
   -8.5949557174E+00   -8.5613953059E+00   -8.5281024988E+00   -8.4950744184E+00
   -8.4623079337E+00   -8.4297998555E+00   -8.3975470782E+00   -8.3655464672E+00
   -8.3337948684E+00   -8.3022890921E+00   -8.2710260076E+00   -8.2400026155E+00
   -8.2092157920E+00   -8.1786623858E+00   -8.1483396411E+00   -8.1182446231E+00
   -8.0883741369E+00   -8.0587257125E+00   -8.0292966028E+00   -8.0000838073E+00
   -7.9710849013E+00   -7.9422974103E+00   -7.9137186188E+00   -7.8853460510E+00
   -7.8571775163E+00   -7.8292106022E+00   -7.8014427644E+00   -7.7738720595E+00
   -7.7464962930E+00   -7.7193130643E+00   -7.6923204355E+00   -7.6655164171E+00
   -7.6388988742E+00   -7.6124657434E+00   -7.5862152341E+00   -7.5601454147E+00
   -7.5342541848E+00   -7.5085398545E+00   -7.4830006058E+00   -7.4576345145E+00
   -7.4324397602E+00   -7.4074147353E+00   -7.3825577112E+00   -7.3578667731E+00
   -7.3333404470E+00   -7.3089771341E+00   -7.2847751675E+00   -7.2607328947E+00
   -7.2368488507E+00   -7.2131214776E+00   -7.1895491070E+00   -7.1661302923E+00
   -7.1428636003E+00   -7.1197475434E+00   -7.0967805040E+00   -7.0739612077E+00
   -7.0512882401E+00   -7.0287601379E+00   -7.0063754556E+00   -6.9841329450E+00
   -6.9620312576E+00   -6.9400689617E+00   -6.9182447637E+00   -6.8965574412E+00
   -6.8750057085E+00   -6.8535881720E+00   -6.8323036665E+00   -6.8111509993E+00
   -6.7901289448E+00   -6.7692361521E+00   -6.7484715630E+00   -6.7278340187E+00
   -6.7073223449E+00   -6.6869352555E+00   -6.6666717609E+00   -6.6465307471E+00
   -6.6265110856E+00   -6.6066115665E+00   -6.5868312424E+00   -6.5671690509E+00
   -6.5476239137E+00   -6.5281946797E+00   -6.5088804465E+00   -6.4896802014E+00
   -6.4705929197E+00   -6.4516174931E+00   -6.4327530671E+00   -6.4139986762E+00
   -6.3953533532E+00   -6.3768160171E+00   -6.3583858643E+00   -6.3400619744E+00
   -6.3218434266E+00   -6.3037291960E+00   -6.2857184898E+00   -6.2678104443E+00
   -6.2500041818E+00   -6.2322987417E+00   -6.2146933228E+00   -6.1971871231E+00
   -6.1797793058E+00   -6.1624689784E+00   -6.1452553180E+00   -6.1281375868E+00
   -6.1111149871E+00   -6.0941866978E+00   -6.0773518631E+00   -6.0606098106E+00
   -6.0439597797E+00   -6.0274010097E+00   -6.0109326459E+00   -5.9945540379E+00
   -5.9782644749E+00   -5.9620632315E+00   -5.9459495294E+00   -5.9299226580E+00
   -5.9139819805E+00   -5.8981268056E+00   -5.8823564358E+00   -5.8666700912E+00
   -5.8510672085E+00   -5.8355471286E+00   -5.8201091923E+00   -5.8047526818E+00
   -5.7894769692E+00   -5.7742814704E+00   -5.7591655569E+00   -5.7441285972E+00
   -5.7291698721E+00   -5.7142888766E+00   -5.6994850114E+00   -5.6847576774E+00
   -5.6701062327E+00   -5.6555300769E+00   -5.6410286944E+00   -5.6266015137E+00
   -5.6122479638E+00   -5.5979673992E+00   -5.5837593220E+00   -5.5696232086E+00
   -5.5555585145E+00   -5.5415646877E+00   -5.5276411082E+00   -5.5137873408E+00
   -5.5000028663E+00   -5.4862871653E+00   -5.4726396897E+00   -5.4590598942E+00
   -5.4455473457E+00   -5.4321015492E+00   -5.4187220097E+00   -5.4054081880E+00
   -5.3921595987E+00   -5.3789758151E+00   -5.3658563652E+00   -5.3528007771E+00
   -5.3398085252E+00   -5.3268791703E+00   -5.3140122963E+00   -5.3012074530E+00
   -5.2884641905E+00   -5.2757820014E+00   -5.2631604792E+00   -5.2505992225E+00
   -5.2380978023E+00   -5.2256557895E+00   -5.2132726987E+00   -5.2009481438E+00
   -5.1886817425E+00   -5.1764730857E+00   -5.1643217643E+00   -5.1522273185E+00
   -5.1401893711E+00   -5.1282075626E+00   -5.1162815029E+00   -5.1044108022E+00
   -5.0925950298E+00   -5.0808338064E+00   -5.0691267989E+00   -5.0574736356E+00
   -5.0458739446E+00   -5.0343273283E+00   -5.0228333946E+00   -5.0113918406E+00
   -5.0000023116E+00   -4.9886644533E+00   -4.9773779040E+00   -4.9661422503E+00
   -4.9549572214E+00   -4.9438224794E+00   -4.9327376862E+00   -4.9217025038E+00
   -4.9107165366E+00   -4.8997795007E+00   -4.8888910896E+00   -4.8780509810E+00
   -4.8672588528E+00   -4.8565143520E+00   -4.8458171514E+00   -4.8351669856E+00
   -4.8245635471E+00   -4.8140065289E+00   -4.8034956238E+00   -4.7930304559E+00
   -4.7826108000E+00   -4.7722363636E+00   -4.7619068538E+00   -4.7516219778E+00
   -4.7413814085E+00   -4.7311848587E+00   -4.7210320842E+00   -4.7109228055E+00
   -4.7008567435E+00   -4.6908336190E+00   -4.6808530908E+00   -4.6709149489E+00
   -4.6610189314E+00   -4.6511647723E+00   -4.6413522051E+00   -4.6315809436E+00
   -4.6218506997E+00   -4.6121612651E+00   -4.6025123858E+00   -4.5929038080E+00
   -4.5833352779E+00   -4.5738065027E+00   -4.5643172492E+00   -4.5548673006E+00
   -4.5454564149E+00   -4.5360843502E+00   -4.5267508643E+00   -4.5174556631E+00
   -4.5081985561E+00   -4.4989793225E+00   -4.4897977316E+00   -4.4806535526E+00
   -4.4715465542E+00   -4.4624764469E+00   -4.4534430699E+00   -4.4444462033E+00
   -4.4354856271E+00   -4.4265611212E+00   -4.4176724595E+00   -4.4088193764E+00
   -4.4000017148E+00   -4.3912192651E+00   -4.3824718174E+00   -4.3737591621E+00
   -4.3650810817E+00   -4.3564373253E+00   -4.3478277428E+00   -4.3392521344E+00
   -4.3307103000E+00   -4.3222020397E+00   -4.3137271487E+00   -4.3052853811E+00
   -4.2968765976E+00   -4.2885006076E+00   -4.2801572203E+00   -4.2718462453E+00
   -4.2635674918E+00   -4.2553207162E+00   -4.2471057873E+00   -4.2389225253E+00
   -4.2307707483E+00   -4.2226502747E+00   -4.2145609227E+00   -4.2065024687E+00
   -4.1984747666E+00   -4.1904776557E+00   -4.1825109626E+00   -4.1745745140E+00
   -4.1666681367E+00   -4.1587916303E+00   -4.1509448263E+00   -4.1431275855E+00
   -4.1353397429E+00   -4.1275811332E+00   -4.1198515912E+00   -4.1121509430E+00
   -4.1044789903E+00   -4.0968356184E+00   -4.0892206698E+00   -4.0816339870E+00
   -4.0740754123E+00   -4.0665447885E+00   -4.0590419202E+00   -4.0515666800E+00
   -4.0441189306E+00   -4.0366985218E+00   -4.0293053034E+00   -4.0219391254E+00
   -4.0145998249E+00   -4.0072872291E+00   -4.0000012317E+00   -3.9927416894E+00
   -3.9855084590E+00   -3.9783013974E+00   -3.9711203614E+00   -3.9639651751E+00
   -3.9568357168E+00   -3.9497318656E+00   -3.9426534849E+00   -3.9356004382E+00
   -3.9285725891E+00   -3.9215697998E+00   -3.9145918898E+00   -3.9076387742E+00
   -3.9007103228E+00   -3.8938064054E+00   -3.8869268920E+00   -3.8800716523E+00
   -3.8732405426E+00   -3.8664334158E+00   -3.8596501799E+00   -3.8528907110E+00
   -3.8461548849E+00   -3.8394425775E+00   -3.8327536648E+00   -3.8260880010E+00
   -3.8194454630E+00   -3.8128259559E+00   -3.8062293613E+00   -3.7996555609E+00
   -3.7931044364E+00   -3.7865758695E+00   -3.7800697161E+00   -3.7735858687E+00
   -3.7671242326E+00   -3.7606846950E+00   -3.7542671431E+00   -3.7478714642E+00
   -3.7414975454E+00   -3.7351452477E+00   -3.7288144710E+00   -3.7225051243E+00
   -3.7162171002E+00   -3.7099502911E+00   -3.7037045895E+00   -3.6974798879E+00
   -3.6912760555E+00   -3.6850929918E+00   -3.6789306131E+00   -3.6727888168E+00
   -3.6666675004E+00   -3.6605665614E+00
  </PP_LOCAL>
 <PP_NONLOCAL>
   <PP_BETA.1
       type="real"
       size=" 602"
       columns="4"
       index="1"
       angular_momentum="0"
       cutoff_radius_index=" 298"
       cutoff_radius="    2.9700000000E+00" >
    0.0000000000E+00    3.5897994770E-02    7.1767217407E-02    1.0757890066E-01
    1.4330428709E-01    1.7891463423E-01    2.1438121987E-01    2.4967534768E-01
    2.8476835328E-01    3.1963161066E-01    3.5423653913E-01    3.8855461092E-01
    4.2255735939E-01    4.5621638795E-01    4.8950337974E-01    5.2239010824E-01
    5.5484844868E-01    5.8685039041E-01    6.1836805030E-01    6.4937368720E-01
    6.7983971737E-01    7.0973873117E-01    7.3904351081E-01    7.6772704930E-01
    7.9576257061E-01    8.2312355106E-01    8.4978374192E-01    8.7571719325E-01
    9.0089827900E-01    9.2530172333E-01    9.4890262818E-01    9.7167650203E-01
    9.9359928986E-01    1.0146474041E+00    1.0347977574E+00    1.0540277950E+00
    1.0723155305E+00    1.0896395796E+00    1.1059791975E+00    1.1213143157E+00
    1.1356255802E+00    1.1488943893E+00    1.1611029338E+00    1.1722342362E+00
    1.1822721911E+00    1.1912016059E+00    1.1990082412E+00    1.2056788522E+00
    1.2112012283E+00    1.2155642350E+00    1.2187578557E+00    1.2207732291E+00
    1.2216026865E+00    1.2212398008E+00    1.2196794115E+00    1.2169176706E+00
    1.2129520766E+00    1.2077815052E+00    1.2014062501E+00    1.1938280472E+00
    1.1850501080E+00    1.1750771529E+00    1.1639154190E+00    1.1515727131E+00
    1.1380584088E+00    1.1233834675E+00    1.1075604753E+00    1.0906036357E+00
    1.0725287841E+00    1.0533534016E+00    1.0330966215E+00    1.0117792228E+00
    9.8942363119E-01    9.6605391336E-01    9.4169576922E-01    9.1637652242E-01
    8.9012509774E-01    8.6297200342E-01    8.3494930715E-01    8.0609060803E-01
    7.7643100464E-01    7.4600705907E-01    7.1485675694E-01    6.8301946349E-01
    6.5053587559E-01    6.1744796984E-01    5.8379894670E-01    5.4963317080E-01
    5.1499610737E-01    4.7993425491E-01    4.4449507429E-01    4.0872691418E-01
    3.7267893317E-01    3.3640101853E-01    2.9994370199E-01    2.6335807249E-01