<UPF version="2.0.1">
  <PP_INFO>

 This pseudopotential file has been produced using the code
 ONCVPSP  (Optimized Norm-Conservinng Vanderbilt PSeudopotential)
 scalar-relativistic version 2.1.1, 03/26/2014 by D. R. Hamann
 The code is available through a link at URL www.mat-simresearch.com.
 Documentation with the package provides a full discription of the
 input data below.


 While it is not required under the terms of the GNU GPL, it is
 suggested that you cite D. R. Hamann, Phys. Rev. B 88, 085117 (2013)
 in any publication using these pseudopotentials.


 Copyright 2015 The Regents of the University of California
 
 This work is licensed under the Creative Commons Attribution-ShareAlike 
 4.0 International License. To view a copy of this license, visit 
 http://creativecommons.org/licenses/by-sa/4.0/ or send a letter to 
 Creative Commons, PO Box 1866, Mountain View, CA 94042, USA.
 
 This pseudopotential is part of the Schlipf-Gygi norm-conserving 
 pseudopotential library. Its construction parameters were tuned to 
 reproduce materials of a training set with very high accuracy and 
 should be suitable as a general purpose pseudopotential to treat a 
 variety of different compounds. For details of the construction and 
 testing of the pseudopotential please refer to:
 
 [insert reference to paper here]
 
 We kindly ask that you include this reference in all publications 
 associated to this pseudopotential.


    <PP_INPUTFILE>
# ATOM AND REFERENCE CONFIGURATION
# atsym  z    nc    nv    iexc   psfile
  Se 34.00     6     2     4      upf
#
#   n    l    f        energy (Ha)
    1    0    2.00
    2    0    2.00
    2    1    6.00
    3    0    2.00
    3    1    6.00
    3    2   10.00
    4    0    2.00
    4    1    4.00
#
# PSEUDOPOTENTIAL AND OPTIMIZATION
# lmax
    2
#
#   l,   rc,     ep,   ncon, nbas, qcut
    0   2.63348  -0.63530    5    8   6.80027
    1   2.72943  -0.23929    5    8   5.39500
    2   3.34304   0.12418    5    8   4.12405
#
# LOCAL POTENTIAL
# lloc, lpopt,  rc(5),   dvloc0
    4    5   1.45046      0.00000
#
# VANDERBILT-KLEINMAN-BYLANDER PROJECTORs
# l, nproj, debl
    0    2   0.87062
    1    2   0.48830
    2    2   1.38863
#
# MODEL CORE CHARGE
# icmod, fcfact
    0   0.00000
#
# LOG DERIVATIVE ANALYSIS
# epsh1, epsh2, depsh
   -5.00    3.00    0.02
#
# OUTPUT GRID
# rlmax, drl
    6.00    0.01
#
# TEST CONFIGURATIONS
# ncnf
    0
# nvcnf
#   n    l    f
    </PP_INPUTFILE>
  </PP_INFO>
  <!--                               -->
  <!-- END OF HUMAN READABLE SECTION -->
  <!--                               -->
    <PP_HEADER
       generated="Generated using ONCVPSP code by D. R. Hamann"
       author="Martin Schlipf and Francois Gygi"
       date="150415"
       comment=""
       element="Se"
       pseudo_type="NC"
       relativistic="scalar"
       is_ultrasoft="F"
       is_paw="F"
       is_coulomb="F"
       has_so="F"
       has_wfc="F"
       has_gipaw="F"
       core_correction="F"
       functional="PBE"
       z_valence="    6.00"
       total_psenergy="  -9.32547673317E+00"
       rho_cutoff="   6.01000000000E+00"
       l_max="2"
       l_local="-1"
       mesh_size="   602"
       number_of_wfc="0"
       number_of_proj="6"/>
 <PP_MESH>
   <PP_R type="real"  size=" 602" columns="8">
    0.0000    0.0100    0.0200    0.0300    0.0400    0.0500    0.0600    0.0700
    0.0800    0.0900    0.1000    0.1100    0.1200    0.1300    0.1400    0.1500
    0.1600    0.1700    0.1800    0.1900    0.2000    0.2100    0.2200    0.2300
    0.2400    0.2500    0.2600    0.2700    0.2800    0.2900    0.3000    0.3100
    0.3200    0.3300    0.3400    0.3500    0.3600    0.3700    0.3800    0.3900
    0.4000    0.4100    0.4200    0.4300    0.4400    0.4500    0.4600    0.4700
    0.4800    0.4900    0.5000    0.5100    0.5200    0.5300    0.5400    0.5500
    0.5600    0.5700    0.5800    0.5900    0.6000    0.6100    0.6200    0.6300
    0.6400    0.6500    0.6600    0.6700    0.6800    0.6900    0.7000    0.7100
    0.7200    0.7300    0.7400    0.7500    0.7600    0.7700    0.7800    0.7900
    0.8000    0.8100    0.8200    0.8300    0.8400    0.8500    0.8600    0.8700
    0.8800    0.8900    0.9000    0.9100    0.9200    0.9300    0.9400    0.9500
    0.9600    0.9700    0.9800    0.9900    1.0000    1.0100    1.0200    1.0300
    1.0400    1.0500    1.0600    1.0700    1.0800    1.0900    1.1000    1.1100
    1.1200    1.1300    1.1400    1.1500    1.1600    1.1700    1.1800    1.1900
    1.2000    1.2100    1.2200    1.2300    1.2400    1.2500    1.2600    1.2700
    1.2800    1.2900    1.3000    1.3100    1.3200    1.3300    1.3400    1.3500
    1.3600    1.3700    1.3800    1.3900    1.4000    1.4100    1.4200    1.4300
    1.4400    1.4500    1.4600    1.4700    1.4800    1.4900    1.5000    1.5100
    1.5200    1.5300    1.5400    1.5500    1.5600    1.5700    1.5800    1.5900
    1.6000    1.6100    1.6200    1.6300    1.6400    1.6500    1.6600    1.6700
    1.6800    1.6900    1.7000    1.7100    1.7200    1.7300    1.7400    1.7500
    1.7600    1.7700    1.7800    1.7900    1.8000    1.8100    1.8200    1.8300
    1.8400    1.8500    1.8600    1.8700    1.8800    1.8900    1.9000    1.9100
    1.9200    1.9300    1.9400    1.9500    1.9600    1.9700    1.9800    1.9900
    2.0000    2.0100    2.0200    2.0300    2.0400    2.0500    2.0600    2.0700
    2.0800    2.0900    2.1000    2.1100    2.1200    2.1300    2.1400    2.1500
    2.1600    2.1700    2.1800    2.1900    2.2000    2.2100    2.2200    2.2300
    2.2400    2.2500    2.2600    2.2700    2.2800    2.2900    2.3000    2.3100
    2.3200    2.3300    2.3400    2.3500    2.3600    2.3700    2.3800    2.3900
    2.4000    2.4100    2.4200    2.4300    2.4400    2.4500    2.4600    2.4700
    2.4800    2.4900    2.5000    2.5100    2.5200    2.5300    2.5400    2.5500
    2.5600    2.5700    2.5800    2.5900    2.6000    2.6100    2.6200    2.6300
    2.6400    2.6500    2.6600    2.6700    2.6800    2.6900    2.7000    2.7100
    2.7200    2.7300    2.7400    2.7500    2.7600    2.7700    2.7800    2.7900
    2.8000    2.8100    2.8200    2.8300    2.8400    2.8500    2.8600    2.8700
    2.8800    2.8900    2.9000    2.9100    2.9200    2.9300    2.9400    2.9500
    2.9600    2.9700    2.9800    2.9900    3.0000    3.0100    3.0200    3.0300
    3.0400    3.0500    3.0600    3.0700    3.0800    3.0900    3.1000    3.1100
    3.1200    3.1300    3.1400    3.1500    3.1600    3.1700    3.1800    3.1900
    3.2000    3.2100    3.2200    3.2300    3.2400    3.2500    3.2600    3.2700
    3.2800    3.2900    3.3000    3.3100    3.3200    3.3300    3.3400    3.3500
    3.3600    3.3700    3.3800    3.3900    3.4000    3.4100    3.4200    3.4300
    3.4400    3.4500    3.4600    3.4700    3.4800    3.4900    3.5000    3.5100
    3.5200    3.5300    3.5400    3.5500    3.5600    3.5700    3.5800    3.5900
    3.6000    3.6100    3.6200    3.6300    3.6400    3.6500    3.6600    3.6700
    3.6800    3.6900    3.7000    3.7100    3.7200    3.7300    3.7400    3.7500
    3.7600    3.7700    3.7800    3.7900    3.8000    3.8100    3.8200    3.8300
    3.8400    3.8500    3.8600    3.8700    3.8800    3.8900    3.9000    3.9100
    3.9200    3.9300    3.9400    3.9500    3.9600    3.9700    3.9800    3.9900
    4.0000    4.0100    4.0200    4.0300    4.0400    4.0500    4.0600    4.0700
    4.0800    4.0900    4.1000    4.1100    4.1200    4.1300    4.1400    4.1500
    4.1600    4.1700    4.1800    4.1900    4.2000    4.2100    4.2200    4.2300
    4.2400    4.2500    4.2600    4.2700    4.2800    4.2900    4.3000    4.3100
    4.3200    4.3300    4.3400    4.3500    4.3600    4.3700    4.3800    4.3900
    4.4000    4.4100    4.4200    4.4300    4.4400    4.4500    4.4600    4.4700
    4.4800    4.4900    4.5000    4.5100    4.5200    4.5300    4.5400    4.5500
    4.5600    4.5700    4.5800    4.5900    4.6000    4.6100    4.6200    4.6300
    4.6400    4.6500    4.6600    4.6700    4.6800    4.6900    4.7000    4.7100
    4.7200    4.7300    4.7400    4.7500    4.7600    4.7700    4.7800    4.7900
    4.8000    4.8100    4.8200    4.8300    4.8400    4.8500    4.8600    4.8700
    4.8800    4.8900    4.9000    4.9100    4.9200    4.9300    4.9400    4.9500
    4.9600    4.9700    4.9800    4.9900    5.0000    5.0100    5.0200    5.0300
    5.0400    5.0500    5.0600    5.0700    5.0800    5.0900    5.1000    5.1100
    5.1200    5.1300    5.1400    5.1500    5.1600    5.1700    5.1800    5.1900
    5.2000    5.2100    5.2200    5.2300    5.2400    5.2500    5.2600    5.2700
    5.2800    5.2900    5.3000    5.3100    5.3200    5.3300    5.3400    5.3500
    5.3600    5.3700    5.3800    5.3900    5.4000    5.4100    5.4200    5.4300
    5.4400    5.4500    5.4600    5.4700    5.4800    5.4900    5.5000    5.5100
    5.5200    5.5300    5.5400    5.5500    5.5600    5.5700    5.5800    5.5900
    5.6000    5.6100    5.6200    5.6300    5.6400    5.6500    5.6600    5.6700
    5.6800    5.6900    5.7000    5.7100    5.7200    5.7300    5.7400    5.7500
    5.7600    5.7700    5.7800    5.7900    5.8000    5.8100    5.8200    5.8300
    5.8400    5.8500    5.8600    5.8700    5.8800    5.8900    5.9000    5.9100
    5.9200    5.9300    5.9400    5.9500    5.9600    5.9700    5.9800    5.9900
    6.0000    6.0100
   </PP_R>
   <PP_RAB type="real"  size=" 602" columns="8">
    0.0100    0.0100    0.0100    0.0100    0.0100    0.0100    0.0100    0.0100
    0.0100    0.0100    0.0100    0.0100    0.0100    0.0100    0.0100    0.0100
    0.0100    0.0100    0.0100    0.0100    0.0100    0.0100    0.0100    0.0100
    0.0100    0.0100    0.0100    0.0100    0.0100    0.0100    0.0100    0.0100
    0.0100    0.0100    0.0100    0.0100    0.0100    0.0100    0.0100    0.0100
    0.0100    0.0100    0.0100    0.0100    0.0100    0.0100    0.0100    0.0100
    0.0100    0.0100    0.0100    0.0100    0.0100    0.0100    0.0100    0.0100
    0.0100    0.0100    0.0100    0.0100    0.0100    0.0100    0.0100    0.0100
    0.0100    0.0100    0.0100    0.0100    0.0100    0.0100    0.0100    0.0100
    0.0100    0.0100    0.0100    0.0100    0.0100    0.0100    0.0100    0.0100
    0.0100    0.0100    0.0100    0.0100    0.0100    0.0100    0.0100    0.0100
    0.0100    0.0100    0.0100    0.0100    0.0100    0.0100    0.0100    0.0100
    0.0100    0.0100    0.0100    0.0100    0.0100    0.0100    0.0100    0.0100
    0.0100    0.0100    0.0100    0.0100    0.0100    0.0100    0.0100    0.0100
    0.0100    0.0100    0.0100    0.0100    0.0100    0.0100    0.0100    0.0100
    0.0100    0.0100    0.0100    0.0100    0.0100    0.0100    0.0100    0.0100
    0.0100    0.0100    0.0100    0.0100    0.0100    0.0100    0.0100    0.0100
    0.0100    0.0100    0.0100    0.0100    0.0100    0.0100    0.0100    0.0100
    0.0100    0.0100    0.0100    0.0100    0.0100    0.0100    0.0100    0.0100
    0.0100    0.0100    0.0100    0.0100    0.0100    0.0100    0.0100    0.0100
    0.0100    0.0100    0.0100    0.0100    0.0100    0.0100    0.0100    0.0100
    0.0100    0.0100    0.0100    0.0100    0.0100    0.0100    0.0100    0.0100
    0.0100    0.0100    0.0100    0.0100    0.0100    0.0100    0.0100    0.0100
    0.0100    0.0100    0.0100    0.0100    0.0100    0.0100    0.0100    0.0100
    0.0100    0.0100    0.0100    0.0100    0.0100    0.0100    0.0100    0.0100
    0.0100    0.0100    0.0100    0.0100    0.0100    0.0100    0.0100    0.0100
    0.0100    0.0100    0.0100    0.0100    0.0100    0.0100    0.0100    0.0100
    0.0100    0.0100    0.0100    0.0100    0.0100    0.0100    0.0100    0.0100
    0.0100    0.0100    0.0100    0.0100    0.0100    0.0100    0.0100    0.0100
    0.0100    0.0100    0.0100    0.0100    0.0100    0.0100    0.0100    0.0100
    0.0100    0.0100    0.0100    0.0100    0.0100    0.0100    0.0100    0.0100
    0.0100    0.0100    0.0100    0.0100    0.0100    0.0100    0.0100    0.0100
    0.0100    0.0100    0.0100    0.0100    0.0100    0.0100    0.0100    0.0100
    0.0100    0.0100    0.0100    0.0100    0.0100    0.0100    0.0100    0.0100
    0.0100    0.0100    0.0100    0.0100    0.0100    0.0100    0.0100    0.0100
    0.0100    0.0100    0.0100    0.0100    0.0100    0.0100    0.0100    0.0100
    0.0100    0.0100    0.0100    0.0100    0.0100    0.0100    0.0100    0.0100
    0.0100    0.0100    0.0100    0.0100    0.0100    0.0100    0.0100    0.0100
    0.0100    0.0100    0.0100    0.0100    0.0100    0.0100    0.0100    0.0100
    0.0100    0.0100    0.0100    0.0100    0.0100    0.0100    0.0100    0.0100
    0.0100    0.0100    0.0100    0.0100    0.0100    0.0100    0.0100    0.0100
    0.0100    0.0100    0.0100    0.0100    0.0100    0.0100    0.0100    0.0100
    0.0100    0.0100    0.0100    0.0100    0.0100    0.0100    0.0100    0.0100
    0.0100    0.0100    0.0100    0.0100    0.0100    0.0100    0.0100    0.0100
    0.0100    0.0100    0.0100    0.0100    0.0100    0.0100    0.0100    0.0100
    0.0100    0.0100    0.0100    0.0100    0.0100    0.0100    0.0100    0.0100
    0.0100    0.0100    0.0100    0.0100    0.0100    0.0100    0.0100    0.0100
    0.0100    0.0100    0.0100    0.0100    0.0100    0.0100    0.0100    0.0100
    0.0100    0.0100    0.0100    0.0100    0.0100    0.0100    0.0100    0.0100
    0.0100    0.0100    0.0100    0.0100    0.0100    0.0100    0.0100    0.0100
    0.0100    0.0100    0.0100    0.0100    0.0100    0.0100    0.0100    0.0100
    0.0100    0.0100    0.0100    0.0100    0.0100    0.0100    0.0100    0.0100
    0.0100    0.0100    0.0100    0.0100    0.0100    0.0100    0.0100    0.0100
    0.0100    0.0100    0.0100    0.0100    0.0100    0.0100    0.0100    0.0100
    0.0100    0.0100    0.0100    0.0100    0.0100    0.0100    0.0100    0.0100
    0.0100    0.0100    0.0100    0.0100    0.0100    0.0100    0.0100    0.0100
    0.0100    0.0100    0.0100    0.0100    0.0100    0.0100    0.0100    0.0100
    0.0100    0.0100    0.0100    0.0100    0.0100    0.0100    0.0100    0.0100
    0.0100    0.0100    0.0100    0.0100    0.0100    0.0100    0.0100    0.0100
    0.0100    0.0100    0.0100    0.0100    0.0100    0.0100    0.0100    0.0100
    0.0100    0.0100    0.0100    0.0100    0.0100    0.0100    0.0100    0.0100
    0.0100    0.0100    0.0100    0.0100    0.0100    0.0100    0.0100    0.0100
    0.0100    0.0100    0.0100    0.0100    0.0100    0.0100    0.0100    0.0100
    0.0100    0.0100    0.0100    0.0100    0.0100    0.0100    0.0100    0.0100
    0.0100    0.0100    0.0100    0.0100    0.0100    0.0100    0.0100    0.0100
    0.0100    0.0100    0.0100    0.0100    0.0100    0.0100    0.0100    0.0100
    0.0100    0.0100    0.0100    0.0100    0.0100    0.0100    0.0100    0.0100
    0.0100    0.0100    0.0100    0.0100    0.0100    0.0100    0.0100    0.0100
    0.0100    0.0100    0.0100    0.0100    0.0100    0.0100    0.0100    0.0100
    0.0100    0.0100    0.0100    0.0100    0.0100    0.0100    0.0100    0.0100
    0.0100    0.0100    0.0100    0.0100    0.0100    0.0100    0.0100    0.0100
    0.0100    0.0100    0.0100    0.0100    0.0100    0.0100    0.0100    0.0100
    0.0100    0.0100    0.0100    0.0100    0.0100    0.0100    0.0100    0.0100
    0.0100    0.0100    0.0100    0.0100    0.0100    0.0100    0.0100    0.0100
    0.0100    0.0100    0.0100    0.0100    0.0100    0.0100    0.0100    0.0100
    0.0100    0.0100
   </PP_RAB>
 </PP_MESH>
  <PP_LOCAL type="real"  size=" 602" columns="4">
   -2.1407231482E+01   -2.1399781382E+01   -2.1381651387E+01   -2.1355848192E+01
   -2.1325378497E+01   -2.1291860140E+01   -2.1256102608E+01   -2.1218508644E+01
   -2.1179288415E+01   -2.1138562892E+01   -2.1096412963E+01   -2.1052902886E+01
   -2.1008091454E+01   -2.0962037158E+01   -2.0914800313E+01   -2.0866443647E+01
   -2.0817032074E+01   -2.0766632043E+01   -2.0715310656E+01   -2.0663134647E+01
   -2.0610169273E+01   -2.0556477141E+01   -2.0502116968E+01   -2.0447142283E+01
   -2.0391600070E+01   -2.0335529374E+01   -2.0278959850E+01   -2.0221910319E+01
   -2.0164387320E+01   -2.0106383711E+01   -2.0047877370E+01   -1.9988830018E+01
   -1.9929186228E+01   -1.9868872710E+01   -1.9807797884E+01   -1.9745851750E+01
   -1.9682906295E+01   -1.9618816226E+01   -1.9553420231E+01   -1.9486542789E+01
   -1.9417996425E+01   -1.9347584495E+01   -1.9275104419E+01   -1.9200351372E+01
   -1.9123122291E+01   -1.9043220134E+01   -1.8960458369E+01   -1.8874665446E+01
   -1.8785689219E+01   -1.8693401132E+01   -1.8597699841E+01   -1.8498515107E+01
   -1.8395810119E+01   -1.8289583095E+01   -1.8179869703E+01   -1.8066741822E+01
   -1.7950308002E+01   -1.7830711082E+01   -1.7708126138E+01   -1.7582756513E+01
   -1.7454830377E+01   -1.7324594958E+01   -1.7192312515E+01   -1.7058254051E+01
   -1.6922694383E+01   -1.6785906815E+01   -1.6648158426E+01   -1.6509706206E+01
   -1.6370792740E+01   -1.6231644135E+01   -1.6092467935E+01   -1.5953452107E+01
   -1.5814764074E+01   -1.5676551111E+01   -1.5538941259E+01   -1.5402044309E+01
   -1.5265953192E+01   -1.5130745561E+01   -1.4996485446E+01   -1.4863224981E+01
   -1.4731005743E+01   -1.4599860487E+01   -1.4469814368E+01   -1.4340886086E+01
   -1.4213088865E+01   -1.4086431277E+01   -1.3960917908E+01   -1.3836549911E+01
   -1.3713325430E+01   -1.3591239958E+01   -1.3470286619E+01   -1.3350456421E+01
   -1.3231738403E+01   -1.3114119904E+01   -1.2997586742E+01   -1.2882123427E+01
   -1.2767713393E+01   -1.2654339250E+01   -1.2541983064E+01   -1.2430626651E+01
   -1.2320251859E+01   -1.2210840969E+01   -1.2102377012E+01   -1.1994844101E+01
   -1.1888227753E+01   -1.1782515110E+01   -1.1677695317E+01   -1.1573759946E+01
   -1.1470702927E+01   -1.1368520772E+01   -1.1267212416E+01   -1.1166780000E+01
   -1.1067228333E+01   -1.0968564793E+01   -1.0870799050E+01   -1.0773943649E+01
   -1.0678013229E+01   -1.0583024204E+01   -1.0488994499E+01   -1.0395943884E+01
   -1.0303892824E+01   -1.0212862465E+01   -1.0122874502E+01   -1.0033950492E+01
   -9.9461117793E+00   -9.8593792021E+00   -9.7737723551E+00   -9.6893099787E+00
   -9.6060094352E+00   -9.5238858029E+00   -9.4429530211E+00   -9.3632226657E+00
   -9.2847034710E+00   -9.2074030639E+00   -9.1313253320E+00   -9.0564716313E+00
   -8.9828421823E+00   -8.9104318949E+00   -8.8392347382E+00   -8.7692413916E+00
   -8.7004383987E+00   -8.6328119298E+00   -8.5663420513E+00   -8.5010080078E+00
   -8.4367854203E+00   -8.3736460407E+00   -8.3115601666E+00   -8.2504972112E+00
   -8.1904270712E+00   -8.1313227575E+00   -8.0731580588E+00   -8.0159083272E+00
   -7.9595506609E+00   -7.9040622960E+00   -7.8494228083E+00   -7.7956111614E+00
   -7.7426086236E+00   -7.6903959197E+00   -7.6389554030E+00   -7.5882693217E+00
   -7.5383209730E+00   -7.4890938536E+00   -7.4405721079E+00   -7.3927402822E+00
   -7.3455833008E+00   -7.2990866159E+00   -7.2532358850E+00   -7.2080173599E+00
   -7.1634173988E+00   -7.1194229705E+00   -7.0760211116E+00   -7.0331994386E+00
   -6.9909456517E+00   -6.9492479544E+00   -6.9080946994E+00   -6.8674746207E+00
   -6.8273767152E+00   -6.7877901947E+00   -6.7487046918E+00   -6.7101098469E+00
   -6.6719959180E+00   -6.6343529303E+00   -6.5971717526E+00   -6.5604427581E+00
   -6.5241573579E+00   -6.4883063887E+00   -6.4528816058E+00   -6.4178744197E+00
   -6.3832768127E+00   -6.3490807903E+00   -6.3152785208E+00   -6.2818625947E+00
   -6.2488253394E+00   -6.2161598647E+00   -6.1838587754E+00   -6.1519154758E+00
   -6.1203230762E+00   -6.0890750529E+00   -6.0581650847E+00   -6.0275866925E+00
   -5.9973340552E+00   -5.9674008935E+00   -5.9377816203E+00   -5.9084704410E+00
   -5.8794617454E+00   -5.8507503011E+00   -5.8223304625E+00   -5.7941973928E+00
   -5.7663458464E+00   -5.7387709189E+00   -5.7114679320E+00   -5.6844318830E+00
   -5.6576585045E+00   -5.6311431366E+00   -5.6048814380E+00   -5.5788693092E+00
   -5.5531022706E+00   -5.5275765972E+00   -5.5022882126E+00   -5.4772332091E+00
   -5.4524080440E+00   -5.4278088030E+00   -5.4034321288E+00   -5.3792745808E+00
   -5.3553325681E+00   -5.3316030901E+00   -5.3080828022E+00   -5.2847685890E+00
   -5.2616576052E+00   -5.2387466733E+00   -5.2160331092E+00   -5.1935141991E+00
   -5.1711869724E+00   -5.1490490901E+00   -5.1270979284E+00   -5.1053308725E+00
   -5.0837457253E+00   -5.0623400155E+00   -5.0411114383E+00   -5.0200579242E+00
   -4.9991771547E+00   -4.9784670828E+00   -4.9579257553E+00   -4.9375510043E+00
   -4.9173409857E+00   -4.8972938532E+00   -4.8774075823E+00   -4.8576804796E+00
   -4.8381107946E+00   -4.8186966358E+00   -4.7994364122E+00   -4.7803284568E+00
   -4.7613709960E+00   -4.7425625006E+00   -4.7239013726E+00   -4.7053859376E+00
   -4.6870146972E+00   -4.6687861053E+00   -4.6506985651E+00   -4.6327505887E+00
   -4.6149406652E+00   -4.5972672417E+00   -4.5797288459E+00   -4.5623239996E+00
   -4.5450511675E+00   -4.5279089103E+00   -4.5108958093E+00   -4.4940104017E+00
   -4.4772512540E+00   -4.4606169648E+00   -4.4441061019E+00   -4.4277172361E+00
   -4.4114489950E+00   -4.3952999699E+00   -4.3792686199E+00   -4.3633538076E+00
   -4.3475542379E+00   -4.3318684817E+00   -4.3162954159E+00   -4.3008338853E+00
   -4.2854826645E+00   -4.2702405712E+00   -4.2551064823E+00   -4.2400792264E+00
   -4.2251575670E+00   -4.2103405064E+00   -4.1956269488E+00   -4.1810157311E+00
   -4.1665058333E+00   -4.1520962379E+00   -4.1377858723E+00   -4.1235736651E+00
   -4.1094586874E+00   -4.0954399433E+00   -4.0815163640E+00   -4.0676870452E+00
   -4.0539510563E+00   -4.0403074215E+00   -4.0267551672E+00   -4.0132934522E+00
   -3.9999213721E+00   -3.9866379589E+00   -3.9734423771E+00   -3.9603337892E+00
   -3.9473113223E+00   -3.9343740567E+00   -3.9215212435E+00   -3.9087520612E+00
   -3.8960656474E+00   -3.8834611946E+00   -3.8709379639E+00   -3.8584951720E+00
   -3.8461319722E+00   -3.8338476552E+00   -3.8216414924E+00   -3.8095127329E+00
   -3.7974605631E+00   -3.7854843440E+00   -3.7735833639E+00   -3.7617568895E+00
   -3.7500041834E+00   -3.7383246233E+00   -3.7267175307E+00   -3.7151821926E+00
   -3.7037179369E+00   -3.6923241588E+00   -3.6810002118E+00   -3.6697454059E+00
   -3.6585591227E+00   -3.6474407774E+00   -3.6363897535E+00   -3.6254053866E+00
   -3.6144871015E+00   -3.6036343352E+00   -3.5928465002E+00   -3.5821229593E+00
   -3.5714631706E+00   -3.5608665956E+00   -3.5503326738E+00   -3.5398607975E+00
   -3.5294504488E+00   -3.5191011155E+00   -3.5088122631E+00   -3.4985833151E+00
   -3.4884137688E+00   -3.4783031403E+00   -3.4682509201E+00   -3.4582565643E+00
   -3.4483195775E+00   -3.4384395059E+00   -3.4286158637E+00   -3.4188481415E+00
   -3.4091358435E+00   -3.3994785476E+00   -3.3898757905E+00   -3.3803270992E+00
   -3.3708319707E+00   -3.3613900155E+00   -3.3520007917E+00   -3.3426638576E+00
   -3.3333787177E+00   -3.3241449951E+00   -3.3149622753E+00   -3.3058301367E+00
   -3.2967481232E+00   -3.2877158343E+00   -3.2787328935E+00   -3.2697988989E+00
   -3.2609134356E+00   -3.2520760740E+00   -3.2432864758E+00   -3.2345442578E+00
   -3.2258490369E+00   -3.2172003842E+00   -3.2085979652E+00   -3.2000414257E+00
   -3.1915304002E+00   -3.1830645039E+00   -3.1746433598E+00   -3.1662666559E+00
   -3.1579340438E+00   -3.1496451751E+00   -3.1413996567E+00   -3.1331971880E+00
   -3.1250374462E+00   -3.1169200992E+00   -3.1088448010E+00   -3.1008111968E+00
   -3.0928190092E+00   -3.0848679214E+00   -3.0769576164E+00   -3.0690877448E+00
   -3.0612580110E+00   -3.0534681327E+00   -3.0457178077E+00   -3.0380067337E+00
   -3.0303345618E+00   -3.0227010459E+00   -3.0151059011E+00   -3.0075488392E+00
   -3.0000295621E+00   -2.9925477542E+00   -2.9851031802E+00   -2.9776955651E+00
   -2.9703246342E+00   -2.9629900930E+00   -2.9556916617E+00   -2.9484291073E+00
   -2.9412021679E+00   -2.9340105813E+00   -2.9268540595E+00   -2.9197323505E+00
   -2.9126452265E+00   -2.9055924374E+00   -2.8985737333E+00   -2.8915888349E+00
   -2.8846375112E+00   -2.8777195412E+00   -2.8708346865E+00   -2.8639827088E+00
   -2.8571633399E+00   -2.8503763625E+00   -2.8436215650E+00   -2.8368987203E+00
   -2.8302076009E+00   -2.8235479518E+00   -2.8169195630E+00   -2.8103222346E+00
   -2.8037557498E+00   -2.7972198919E+00   -2.7907144211E+00   -2.7842391283E+00
   -2.7777938274E+00   -2.7713783117E+00   -2.7649923746E+00   -2.7586357932E+00
   -2.7523083540E+00   -2.7460098864E+00   -2.7397401933E+00   -2.7334990776E+00
   -2.7272863355E+00   -2.7211017437E+00   -2.7149451486E+00   -2.7088163623E+00
   -2.7027151969E+00   -2.6966414646E+00   -2.6905949419E+00   -2.6845754793E+00
   -2.6785829022E+00   -2.6726170316E+00   -2.6666776883E+00   -2.6607646715E+00
   -2.6548778098E+00   -2.6490169506E+00   -2.6431819231E+00   -2.6373725564E+00
   -2.6315886744E+00   -2.6258300797E+00   -2.6200966422E+00   -2.6143881991E+00
   -2.6087045876E+00   -2.6030456447E+00   -2.5974111825E+00   -2.5918010553E+00
   -2.5862151208E+00   -2.5806532235E+00   -2.5751152082E+00   -2.5696009148E+00
   -2.5641101619E+00   -2.5586428331E+00   -2.5531987805E+00   -2.5477778560E+00
   -2.5423799115E+00   -2.5370047798E+00   -2.5316523185E+00   -2.5263224034E+00
   -2.5210148935E+00   -2.5157296475E+00   -2.5104665244E+00   -2.5052253529E+00
   -2.5000060224E+00   -2.4948084034E+00   -2.4896323613E+00   -2.4844777614E+00
   -2.4793444651E+00   -2.4742323128E+00   -2.4691412059E+00   -2.4640710161E+00
   -2.4590216153E+00   -2.4539928751E+00   -2.4489846564E+00   -2.4439968205E+00
   -2.4390292680E+00   -2.4340818766E+00   -2.4291545240E+00   -2.4242470878E+00
   -2.4193594313E+00   -2.4144914304E+00   -2.4096429871E+00   -2.4048139848E+00
   -2.4000043068E+00   -2.3952138364E+00   -2.3904424414E+00   -2.3856900069E+00
   -2.3809564383E+00   -2.3762416244E+00   -2.3715454539E+00   -2.3668678158E+00
   -2.3622085838E+00   -2.3575676476E+00   -2.3529449176E+00   -2.3483402879E+00
   -2.3437536524E+00   -2.3391849053E+00   -2.3346339286E+00   -2.3301006111E+00
   -2.3255848706E+00   -2.3210866061E+00   -2.3166057164E+00   -2.3121421006E+00
   -2.3076956509E+00   -2.3032662507E+00   -2.2988538269E+00   -2.2944582830E+00
   -2.2900795227E+00   -2.2857174496E+00   -2.2813719675E+00   -2.2770429517E+00
   -2.2727303379E+00   -2.2684340348E+00   -2.2641539506E+00   -2.2598899933E+00
   -2.2556420712E+00   -2.2514100732E+00   -2.2471939200E+00   -2.2429935334E+00
   -2.2388088259E+00   -2.2346397099E+00   -2.2304860978E+00   -2.2263478941E+00
   -2.2222250003E+00   -2.2181173529E+00   -2.2140248684E+00   -2.2099474632E+00
   -2.2058850539E+00   -2.2018375570E+00   -2.1978048669E+00   -2.1937869203E+00
   -2.1897836426E+00   -2.1857949542E+00   -2.1818207756E+00   -2.1778610271E+00
   -2.1739156217E+00   -2.1699844691E+00   -2.1660675124E+00   -2.1621646758E+00
   -2.1582758834E+00   -2.1544010594E+00   -2.1505401278E+00   -2.1466929958E+00
   -2.1428595976E+00   -2.1390398701E+00   -2.1352337407E+00   -2.1314411372E+00
   -2.1276619872E+00   -2.1238962183E+00   -2.1201437344E+00   -2.1164044888E+00
   -2.1126784139E+00   -2.1089654407E+00   -2.1052655001E+00   -2.1015785232E+00
   -2.0979044368E+00   -2.0942431562E+00   -2.0905946362E+00   -2.0869588108E+00
   -2.0833356144E+00   -2.0797249812E+00   -2.0761268454E+00   -2.0725411337E+00
   -2.0689677722E+00   -2.0654067148E+00   -2.0618578988E+00   -2.0583212614E+00
   -2.0547967401E+00   -2.0512842721E+00   -2.0477837860E+00   -2.0442952139E+00
   -2.0408185110E+00   -2.0373536174E+00   -2.0339004734E+00   -2.0304590193E+00
   -2.0270291951E+00   -2.0236109334E+00   -2.0202041679E+00   -2.0168088568E+00
   -2.0134249431E+00   -2.0100523699E+00   -2.0066910800E+00   -2.0033410166E+00
   -2.0000021175E+00   -1.9966743141E+00
  </PP_LOCAL>
 <PP_NONLOCAL>
   <PP_BETA.1
       type="real"
       size=" 602"
       columns="4"
       index="1"
       angular_momentum="0"
       cutoff_radius_index=" 338"
       cutoff_radius="    3.3700000000E+00" >
    0.0000000000E+00    3.0955548427E-02    6.1902320723E-02    9.2831482115E-02
    1.2373408089E-01    1.5460099083E-01    1.8542285461E-01    2.1619002875E-01
    2.4689253007E-01    2.7751998442E-01    3.0806157763E-01    3.3850600919E-01
    3.6884144893E-01    3.9905549689E-01    4.2913514678E-01    4.5906675316E-01
    4.8883600263E-01    5.1842788925E-01    5.4782669434E-01    5.7701597091E-01
    6.0597853271E-01    6.3469644831E-01    6.6315104000E-01    6.9132288777E-01
    7.1919183848E-01    7.4673702006E-01    7.7393686094E-01    8.0076911458E-01
    8.2721088913E-01    8.5323868215E-01    8.7882842015E-01    9.0395550316E-01
    9.2859485396E-01    9.5272097172E-01    9.7630798987E-01    9.9932973920E-01
    1.0217598129E+00    1.0435716374E+00    1.0647385457E+00    1.0852338533E+00
    1.1050309379E+00    1.1241033211E+00    1.1424247538E+00    1.1599693010E+00
    1.1767114296E+00    1.1926260968E+00    1.2076888417E+00    1.2218758738E+00
    1.2351641637E+00    1.2475315327E+00    1.2589567372E+00    1.2694195696E+00
    1.2789009347E+00    1.2873829262E+00    1.2948489371E+00    1.3012837063E+00
    1.3066734211E+00    1.3110057745E+00    1.3142700475E+00    1.3164571599E+00
    1.3175597580E+00    1.3175722260E+00    1.3164908009E+00    1.3143135641E+00
    1.3110405007E+00    1.3066735593E+00    1.3012166486E+00    1.2946756610E+00
    1.2870585313E+00    1.2783752077E+00    1.2686376687E+00    1.2578599166E+00
    1.2460579841E+00    1.2332499122E+00    1.2194557224E+00    1.2046973931E+00
    1.1889988242E+00    1.1723857962E+00    1.1548859222E+00    1.1365285928E+00
    1.1173449183E+00    1.0973676579E+00    1.0766311490E+00    1.0551712289E+00
    1.0330251507E+00    1.0102314950E+00    9.8683007552E-01    9.6286184067E-01
    9.3836877095E-01    9.1339377199E-01    8.8798056574E-01    8.6217358658E-01
    8.3601783314E-01    8.0955877790E-01    7.8284223736E-01    7.5591424926E-01