<UPF version="2.0.1">
  <PP_INFO>

 This pseudopotential file has been produced using the code
 ONCVPSP  (Optimized Norm-Conservinng Vanderbilt PSeudopotential)
 scalar-relativistic version 2.1.1, 03/26/2014 by D. R. Hamann
 The code is available through a link at URL www.mat-simresearch.com.
 Documentation with the package provides a full discription of the
 input data below.


 While it is not required under the terms of the GNU GPL, it is
 suggested that you cite D. R. Hamann, Phys. Rev. B 88, 085117 (2013)
 in any publication using these pseudopotentials.


 Copyright 2015 The Regents of the University of California
 
 This work is licensed under the Creative Commons Attribution-ShareAlike 
 4.0 International License. To view a copy of this license, visit 
 http://creativecommons.org/licenses/by-sa/4.0/ or send a letter to 
 Creative Commons, PO Box 1866, Mountain View, CA 94042, USA.
 
 This pseudopotential is part of the Schlipf-Gygi norm-conserving 
 pseudopotential library. Its construction parameters were tuned to 
 reproduce materials of a training set with very high accuracy and 
 should be suitable as a general purpose pseudopotential to treat a 
 variety of different compounds. For details of the construction and 
 testing of the pseudopotential please refer to:
 
 [insert reference to paper here]
 
 We kindly ask that you include this reference in all publications 
 associated to this pseudopotential.


    <PP_INPUTFILE>
# ATOM AND REFERENCE CONFIGURATION
# atsym  z    nc    nv    iexc   psfile
  Sn 50.00     8     3     4      upf
#
#   n    l    f        energy (Ha)
    1    0    2.00
    2    0    2.00
    2    1    6.00
    3    0    2.00
    3    1    6.00
    3    2   10.00
    4    0    2.00
    4    1    6.00
    4    2   10.00
    5    0    2.00
    5    1    2.00
#
# PSEUDOPOTENTIAL AND OPTIMIZATION
# lmax
    2
#
#   l,   rc,     ep,   ncon, nbas, qcut
    0   2.78432  -0.38768    5    8   2.52914
    1   2.92039  -0.13576    5    8   4.90513
    2   3.36982  -0.94957    5    8   6.53914
#
# LOCAL POTENTIAL
# lloc, lpopt,  rc(5),   dvloc0
    4    5   1.92364      0.00000
#
# VANDERBILT-KLEINMAN-BYLANDER PROJECTORs
# l, nproj, debl
    0    2   0.99967
    1    2   0.85384
    2    2   1.34528
#
# MODEL CORE CHARGE
# icmod, fcfact
    0   0.00000
#
# LOG DERIVATIVE ANALYSIS
# epsh1, epsh2, depsh
   -5.00    3.00    0.02
#
# OUTPUT GRID
# rlmax, drl
    6.00    0.01
#
# TEST CONFIGURATIONS
# ncnf
    0
# nvcnf
#   n    l    f
    </PP_INPUTFILE>
  </PP_INFO>
  <!--                               -->
  <!-- END OF HUMAN READABLE SECTION -->
  <!--                               -->
    <PP_HEADER
       generated="Generated using ONCVPSP code by D. R. Hamann"
       author="Martin Schlipf and Francois Gygi"
       date="150415"
       comment=""
       element="Sn"
       pseudo_type="NC"
       relativistic="scalar"
       is_ultrasoft="F"
       is_paw="F"
       is_coulomb="F"
       has_so="F"
       has_wfc="F"
       has_gipaw="F"
       core_correction="F"
       functional="PBE"
       z_valence="   14.00"
       total_psenergy="  -6.01843109347E+01"
       rho_cutoff="   6.01000000000E+00"
       l_max="2"
       l_local="-1"
       mesh_size="   602"
       number_of_wfc="0"
       number_of_proj="6"/>
 <PP_MESH>
   <PP_R type="real"  size=" 602" columns="8">
    0.0000    0.0100    0.0200    0.0300    0.0400    0.0500    0.0600    0.0700
    0.0800    0.0900    0.1000    0.1100    0.1200    0.1300    0.1400    0.1500
    0.1600    0.1700    0.1800    0.1900    0.2000    0.2100    0.2200    0.2300
    0.2400    0.2500    0.2600    0.2700    0.2800    0.2900    0.3000    0.3100
    0.3200    0.3300    0.3400    0.3500    0.3600    0.3700    0.3800    0.3900
    0.4000    0.4100    0.4200    0.4300    0.4400    0.4500    0.4600    0.4700
    0.4800    0.4900    0.5000    0.5100    0.5200    0.5300    0.5400    0.5500
    0.5600    0.5700    0.5800    0.5900    0.6000    0.6100    0.6200    0.6300
    0.6400    0.6500    0.6600    0.6700    0.6800    0.6900    0.7000    0.7100
    0.7200    0.7300    0.7400    0.7500    0.7600    0.7700    0.7800    0.7900
    0.8000    0.8100    0.8200    0.8300    0.8400    0.8500    0.8600    0.8700
    0.8800    0.8900    0.9000    0.9100    0.9200    0.9300    0.9400    0.9500
    0.9600    0.9700    0.9800    0.9900    1.0000    1.0100    1.0200    1.0300
    1.0400    1.0500    1.0600    1.0700    1.0800    1.0900    1.1000    1.1100
    1.1200    1.1300    1.1400    1.1500    1.1600    1.1700    1.1800    1.1900
    1.2000    1.2100    1.2200    1.2300    1.2400    1.2500    1.2600    1.2700
    1.2800    1.2900    1.3000    1.3100    1.3200    1.3300    1.3400    1.3500
    1.3600    1.3700    1.3800    1.3900    1.4000    1.4100    1.4200    1.4300
    1.4400    1.4500    1.4600    1.4700    1.4800    1.4900    1.5000    1.5100
    1.5200    1.5300    1.5400    1.5500    1.5600    1.5700    1.5800    1.5900
    1.6000    1.6100    1.6200    1.6300    1.6400    1.6500    1.6600    1.6700
    1.6800    1.6900    1.7000    1.7100    1.7200    1.7300    1.7400    1.7500
    1.7600    1.7700    1.7800    1.7900    1.8000    1.8100    1.8200    1.8300
    1.8400    1.8500    1.8600    1.8700    1.8800    1.8900    1.9000    1.9100
    1.9200    1.9300    1.9400    1.9500    1.9600    1.9700    1.9800    1.9900
    2.0000    2.0100    2.0200    2.0300    2.0400    2.0500    2.0600    2.0700
    2.0800    2.0900    2.1000    2.1100    2.1200    2.1300    2.1400    2.1500
    2.1600    2.1700    2.1800    2.1900    2.2000    2.2100    2.2200    2.2300
    2.2400    2.2500    2.2600    2.2700    2.2800    2.2900    2.3000    2.3100
    2.3200    2.3300    2.3400    2.3500    2.3600    2.3700    2.3800    2.3900
    2.4000    2.4100    2.4200    2.4300    2.4400    2.4500    2.4600    2.4700
    2.4800    2.4900    2.5000    2.5100    2.5200    2.5300    2.5400    2.5500
    2.5600    2.5700    2.5800    2.5900    2.6000    2.6100    2.6200    2.6300
    2.6400    2.6500    2.6600    2.6700    2.6800    2.6900    2.7000    2.7100
    2.7200    2.7300    2.7400    2.7500    2.7600    2.7700    2.7800    2.7900
    2.8000    2.8100    2.8200    2.8300    2.8400    2.8500    2.8600    2.8700
    2.8800    2.8900    2.9000    2.9100    2.9200    2.9300    2.9400    2.9500
    2.9600    2.9700    2.9800    2.9900    3.0000    3.0100    3.0200    3.0300
    3.0400    3.0500    3.0600    3.0700    3.0800    3.0900    3.1000    3.1100
    3.1200    3.1300    3.1400    3.1500    3.1600    3.1700    3.1800    3.1900
    3.2000    3.2100    3.2200    3.2300    3.2400    3.2500    3.2600    3.2700
    3.2800    3.2900    3.3000    3.3100    3.3200    3.3300    3.3400    3.3500
    3.3600    3.3700    3.3800    3.3900    3.4000    3.4100    3.4200    3.4300
    3.4400    3.4500    3.4600    3.4700    3.4800    3.4900    3.5000    3.5100
    3.5200    3.5300    3.5400    3.5500    3.5600    3.5700    3.5800    3.5900
    3.6000    3.6100    3.6200    3.6300    3.6400    3.6500    3.6600    3.6700
    3.6800    3.6900    3.7000    3.7100    3.7200    3.7300    3.7400    3.7500
    3.7600    3.7700    3.7800    3.7900    3.8000    3.8100    3.8200    3.8300
    3.8400    3.8500    3.8600    3.8700    3.8800    3.8900    3.9000    3.9100
    3.9200    3.9300    3.9400    3.9500    3.9600    3.9700    3.9800    3.9900
    4.0000    4.0100    4.0200    4.0300    4.0400    4.0500    4.0600    4.0700
    4.0800    4.0900    4.1000    4.1100    4.1200    4.1300    4.1400    4.1500
    4.1600    4.1700    4.1800    4.1900    4.2000    4.2100    4.2200    4.2300
    4.2400    4.2500    4.2600    4.2700    4.2800    4.2900    4.3000    4.3100
    4.3200    4.3300    4.3400    4.3500    4.3600    4.3700    4.3800    4.3900
    4.4000    4.4100    4.4200    4.4300    4.4400    4.4500    4.4600    4.4700
    4.4800    4.4900    4.5000    4.5100    4.5200    4.5300    4.5400    4.5500
    4.5600    4.5700    4.5800    4.5900    4.6000    4.6100    4.6200    4.6300
    4.6400    4.6500    4.6600    4.6700    4.6800    4.6900    4.7000    4.7100
    4.7200    4.7300    4.7400    4.7500    4.7600    4.7700    4.7800    4.7900
    4.8000    4.8100    4.8200    4.8300    4.8400    4.8500    4.8600    4.8700
    4.8800    4.8900    4.9000    4.9100    4.9200    4.9300    4.9400    4.9500
    4.9600    4.9700    4.9800    4.9900    5.0000    5.0100    5.0200    5.0300
    5.0400    5.0500    5.0600    5.0700    5.0800    5.0900    5.1000    5.1100
    5.1200    5.1300    5.1400    5.1500    5.1600    5.1700    5.1800    5.1900
    5.2000    5.2100    5.2200    5.2300    5.2400    5.2500    5.2600    5.2700
    5.2800    5.2900    5.3000    5.3100    5.3200    5.3300    5.3400    5.3500
    5.3600    5.3700    5.3800    5.3900    5.4000    5.4100    5.4200    5.4300
    5.4400    5.4500    5.4600    5.4700    5.4800    5.4900    5.5000    5.5100
    5.5200    5.5300    5.5400    5.5500    5.5600    5.5700    5.5800    5.5900
    5.6000    5.6100    5.6200    5.6300    5.6400    5.6500    5.6600    5.6700
    5.6800    5.6900    5.7000    5.7100    5.7200    5.7300    5.7400    5.7500
    5.7600    5.7700    5.7800    5.7900    5.8000    5.8100    5.8200    5.8300
    5.8400    5.8500    5.8600    5.8700    5.8800    5.8900    5.9000    5.9100
    5.9200    5.9300    5.9400    5.9500    5.9600    5.9700    5.9800    5.9900
    6.0000    6.0100
   </PP_R>
   <PP_RAB type="real"  size=" 602" columns="8">
    0.0100    0.0100    0.0100    0.0100    0.0100    0.0100    0.0100    0.0100
    0.0100    0.0100    0.0100    0.0100    0.0100    0.0100    0.0100    0.0100
    0.0100    0.0100    0.0100    0.0100    0.0100    0.0100    0.0100    0.0100
    0.0100    0.0100    0.0100    0.0100    0.0100    0.0100    0.0100    0.0100
    0.0100    0.0100    0.0100    0.0100    0.0100    0.0100    0.0100    0.0100
    0.0100    0.0100    0.0100    0.0100    0.0100    0.0100    0.0100    0.0100
    0.0100    0.0100    0.0100    0.0100    0.0100    0.0100    0.0100    0.0100
    0.0100    0.0100    0.0100    0.0100    0.0100    0.0100    0.0100    0.0100
    0.0100    0.0100    0.0100    0.0100    0.0100    0.0100    0.0100    0.0100
    0.0100    0.0100    0.0100    0.0100    0.0100    0.0100    0.0100    0.0100
    0.0100    0.0100    0.0100    0.0100    0.0100    0.0100    0.0100    0.0100
    0.0100    0.0100    0.0100    0.0100    0.0100    0.0100    0.0100    0.0100
    0.0100    0.0100    0.0100    0.0100    0.0100    0.0100    0.0100    0.0100
    0.0100    0.0100    0.0100    0.0100    0.0100    0.0100    0.0100    0.0100
    0.0100    0.0100    0.0100    0.0100    0.0100    0.0100    0.0100    0.0100
    0.0100    0.0100    0.0100    0.0100    0.0100    0.0100    0.0100    0.0100
    0.0100    0.0100    0.0100    0.0100    0.0100    0.0100    0.0100    0.0100
    0.0100    0.0100    0.0100    0.0100    0.0100    0.0100    0.0100    0.0100
    0.0100    0.0100    0.0100    0.0100    0.0100    0.0100    0.0100    0.0100
    0.0100    0.0100    0.0100    0.0100    0.0100    0.0100    0.0100    0.0100
    0.0100    0.0100    0.0100    0.0100    0.0100    0.0100    0.0100    0.0100
    0.0100    0.0100    0.0100    0.0100    0.0100    0.0100    0.0100    0.0100
    0.0100    0.0100    0.0100    0.0100    0.0100    0.0100    0.0100    0.0100
    0.0100    0.0100    0.0100    0.0100    0.0100    0.0100    0.0100    0.0100
    0.0100    0.0100    0.0100    0.0100    0.0100    0.0100    0.0100    0.0100
    0.0100    0.0100    0.0100    0.0100    0.0100    0.0100    0.0100    0.0100
    0.0100    0.0100    0.0100    0.0100    0.0100    0.0100    0.0100    0.0100
    0.0100    0.0100    0.0100    0.0100    0.0100    0.0100    0.0100    0.0100
    0.0100    0.0100    0.0100    0.0100    0.0100    0.0100    0.0100    0.0100
    0.0100    0.0100    0.0100    0.0100    0.0100    0.0100    0.0100    0.0100
    0.0100    0.0100    0.0100    0.0100    0.0100    0.0100    0.0100    0.0100
    0.0100    0.0100    0.0100    0.0100    0.0100    0.0100    0.0100    0.0100
    0.0100    0.0100    0.0100    0.0100    0.0100    0.0100    0.0100    0.0100
    0.0100    0.0100    0.0100    0.0100    0.0100    0.0100    0.0100    0.0100
    0.0100    0.0100    0.0100    0.0100    0.0100    0.0100    0.0100    0.0100
    0.0100    0.0100    0.0100    0.0100    0.0100    0.0100    0.0100    0.0100
    0.0100    0.0100    0.0100    0.0100    0.0100    0.0100    0.0100    0.0100
    0.0100    0.0100    0.0100    0.0100    0.0100    0.0100    0.0100    0.0100
    0.0100    0.0100    0.0100    0.0100    0.0100    0.0100    0.0100    0.0100
    0.0100    0.0100    0.0100    0.0100    0.0100    0.0100    0.0100    0.0100
    0.0100    0.0100    0.0100    0.0100    0.0100    0.0100    0.0100    0.0100
    0.0100    0.0100    0.0100    0.0100    0.0100    0.0100    0.0100    0.0100
    0.0100    0.0100    0.0100    0.0100    0.0100    0.0100    0.0100    0.0100
    0.0100    0.0100    0.0100    0.0100    0.0100    0.0100    0.0100    0.0100
    0.0100    0.0100    0.0100    0.0100    0.0100    0.0100    0.0100    0.0100
    0.0100    0.0100    0.0100    0.0100    0.0100    0.0100    0.0100    0.0100
    0.0100    0.0100    0.0100    0.0100    0.0100    0.0100    0.0100    0.0100
    0.0100    0.0100    0.0100    0.0100    0.0100    0.0100    0.0100    0.0100
    0.0100    0.0100    0.0100    0.0100    0.0100    0.0100    0.0100    0.0100
    0.0100    0.0100    0.0100    0.0100    0.0100    0.0100    0.0100    0.0100
    0.0100    0.0100    0.0100    0.0100    0.0100    0.0100    0.0100    0.0100
    0.0100    0.0100    0.0100    0.0100    0.0100    0.0100    0.0100    0.0100
    0.0100    0.0100    0.0100    0.0100    0.0100    0.0100    0.0100    0.0100
    0.0100    0.0100    0.0100    0.0100    0.0100    0.0100    0.0100    0.0100
    0.0100    0.0100    0.0100    0.0100    0.0100    0.0100    0.0100    0.0100
    0.0100    0.0100    0.0100    0.0100    0.0100    0.0100    0.0100    0.0100
    0.0100    0.0100    0.0100    0.0100    0.0100    0.0100    0.0100    0.0100
    0.0100    0.0100    0.0100    0.0100    0.0100    0.0100    0.0100    0.0100
    0.0100    0.0100    0.0100    0.0100    0.0100    0.0100    0.0100    0.0100
    0.0100    0.0100    0.0100    0.0100    0.0100    0.0100    0.0100    0.0100
    0.0100    0.0100    0.0100    0.0100    0.0100    0.0100    0.0100    0.0100
    0.0100    0.0100    0.0100    0.0100    0.0100    0.0100    0.0100    0.0100
    0.0100    0.0100    0.0100    0.0100    0.0100    0.0100    0.0100    0.0100
    0.0100    0.0100    0.0100    0.0100    0.0100    0.0100    0.0100    0.0100
    0.0100    0.0100    0.0100    0.0100    0.0100    0.0100    0.0100    0.0100
    0.0100    0.0100    0.0100    0.0100    0.0100    0.0100    0.0100    0.0100
    0.0100    0.0100    0.0100    0.0100    0.0100    0.0100    0.0100    0.0100
    0.0100    0.0100    0.0100    0.0100    0.0100    0.0100    0.0100    0.0100
    0.0100    0.0100    0.0100    0.0100    0.0100    0.0100    0.0100    0.0100
    0.0100    0.0100    0.0100    0.0100    0.0100    0.0100    0.0100    0.0100
    0.0100    0.0100    0.0100    0.0100    0.0100    0.0100    0.0100    0.0100
    0.0100    0.0100    0.0100    0.0100    0.0100    0.0100    0.0100    0.0100
    0.0100    0.0100    0.0100    0.0100    0.0100    0.0100    0.0100    0.0100
    0.0100    0.0100    0.0100    0.0100    0.0100    0.0100    0.0100    0.0100
    0.0100    0.0100    0.0100    0.0100    0.0100    0.0100    0.0100    0.0100
    0.0100    0.0100
   </PP_RAB>
 </PP_MESH>
  <PP_LOCAL type="real"  size=" 602" columns="4">
   -2.9806311811E+01   -2.9832378177E+01   -2.9844482021E+01   -2.9883270417E+01
   -2.9989390438E+01   -3.0235395273E+01   -3.0691566335E+01   -3.1286666120E+01
   -3.1670339470E+01   -3.1474342938E+01   -3.0816928557E+01   -3.0151377244E+01
   -2.9732835502E+01   -2.9542361946E+01   -2.9478248125E+01   -2.9464074028E+01
   -2.9461641418E+01   -2.9456370245E+01   -2.9444490086E+01   -2.9426235359E+01
   -2.9402944468E+01   -2.9376022331E+01   -2.9346654784E+01   -2.9315783674E+01
   -2.9284151621E+01   -2.9252351140E+01   -2.9220860966E+01   -2.9190067403E+01
   -2.9160274276E+01   -2.9131704579E+01   -2.9104496978E+01   -2.9078699618E+01
   -2.9054263326E+01   -2.9031035393E+01   -2.9008756499E+01   -2.8987060556E+01
   -2.8965479747E+01   -2.8943454190E+01   -2.8920347736E+01   -2.8895468392E+01
   -2.8868093422E+01   -2.8837497951E+01   -2.8802985168E+01   -2.8763916596E+01
   -2.8719740477E+01   -2.8670016380E+01   -2.8614434410E+01   -2.8552827387E+01
   -2.8485176729E+01   -2.8411609519E+01   -2.8332388111E+01   -2.8247893175E+01
   -2.8158603845E+01   -2.8065070487E+01   -2.7967888666E+01   -2.7867672663E+01
   -2.7765031040E+01   -2.7660544483E+01   -2.7554751252E+01   -2.7448132039E+01
   -2.7341106857E+01   -2.7234028516E+01   -2.7127186377E+01   -2.7020809934E+01
   -2.6915072656E+01   -2.6810101382E+01   -2.6705982803E+01   -2.6602769327E+01
   -2.6500487252E+01   -2.6399141957E+01   -2.6298722704E+01   -2.6199206339E+01
   -2.6100560866E+01   -2.6002747569E+01   -2.5905722678E+01   -2.5809438499E+01
   -2.5713844074E+01   -2.5618885473E+01   -2.5524505932E+01   -2.5430645720E+01
   -2.5337241936E+01   -2.5244228256E+01   -2.5151534703E+01   -2.5059087465E+01
   -2.4966808828E+01   -2.4874617241E+01   -2.4782427549E+01   -2.4690151415E+01
   -2.4597697941E+01   -2.4504974489E+01   -2.4411887697E+01   -2.4318344661E+01
   -2.4224254257E+01   -2.4129528562E+01   -2.4034084259E+01   -2.3937844052E+01
   -2.3840738454E+01   -2.3742706695E+01   -2.3643697927E+01   -2.3543672097E+01
   -2.3442600553E+01   -2.3340466340E+01   -2.3237263744E+01   -2.3133000022E+01
   -2.3027692933E+01   -2.2921370598E+01   -2.2814070578E+01   -2.2705838404E+01
   -2.2596727938E+01   -2.2486798659E+01   -2.2376114630E+01   -2.2264743406E+01
   -2.2152755242E+01   -2.2040221712E+01   -2.1927214540E+01   -2.1813805167E+01
   -2.1700063930E+01   -2.1586059020E+01   -2.1471856533E+01   -2.1357520609E+01
   -2.1243111560E+01   -2.1128687013E+01   -2.1014302127E+01   -2.0900008478E+01
   -2.0785854331E+01   -2.0671885793E+01   -2.0558145908E+01   -2.0444674479E+01
   -2.0331509684E+01   -2.0218687052E+01   -2.0106239452E+01   -1.9994198638E+01
   -1.9882593907E+01   -1.9771452736E+01   -1.9660801844E+01   -1.9550665511E+01
   -1.9441067148E+01   -1.9332029256E+01   -1.9223572314E+01   -1.9115716556E+01
   -1.9008480683E+01   -1.8901882372E+01   -1.8795938966E+01   -1.8690665911E+01
   -1.8586078664E+01   -1.8482191206E+01   -1.8379016787E+01   -1.8276568122E+01
   -1.8174856262E+01   -1.8073892536E+01   -1.7973686079E+01   -1.7874246243E+01
   -1.7775580761E+01   -1.7677696785E+01   -1.7580600634E+01   -1.7484297245E+01
   -1.7388791487E+01   -1.7294086113E+01   -1.7200184500E+01   -1.7107087358E+01
   -1.7014796367E+01   -1.6923310528E+01   -1.6832629669E+01   -1.6742751321E+01
   -1.6653673549E+01   -1.6565392510E+01   -1.6477904701E+01   -1.6391205038E+01
   -1.6305288676E+01   -1.6220149459E+01   -1.6135781454E+01   -1.6052177636E+01
   -1.5969331230E+01   -1.5887234582E+01   -1.5805880305E+01   -1.5725260369E+01
   -1.5645366974E+01   -1.5566191957E+01   -1.5487727272E+01   -1.5409964821E+01
   -1.5332896464E+01   -1.5256514257E+01   -1.5180810143E+01   -1.5105776300E+01
   -1.5031404867E+01   -1.4957688080E+01   -1.4884618249E+01   -1.4812187635E+01
   -1.4740388506E+01   -1.4669213177E+01   -1.4598653500E+01   -1.4528701773E+01
   -1.4459349314E+01   -1.4390587522E+01   -1.4322408127E+01   -1.4254802713E+01
   -1.4187763094E+01   -1.4121282380E+01   -1.4055352763E+01   -1.3989967884E+01
   -1.3925120833E+01   -1.3860805014E+01   -1.3797013962E+01   -1.3733741134E+01
   -1.3670979850E+01   -1.3608723686E+01   -1.3546965619E+01   -1.3485698814E+01
   -1.3424916300E+01   -1.3364610502E+01   -1.3304774409E+01   -1.3245400073E+01
   -1.3186479826E+01   -1.3128005907E+01   -1.3069970176E+01   -1.3012364661E+01
   -1.2955181366E+01   -1.2898412205E+01   -1.2842049126E+01   -1.2786084683E+01
   -1.2730510725E+01   -1.2675320228E+01   -1.2620506383E+01   -1.2566061276E+01
   -1.2511979816E+01   -1.2458255434E+01   -1.2404882187E+01   -1.2351856095E+01
   -1.2299171302E+01   -1.2246824346E+01   -1.2194812224E+01   -1.2143130066E+01
   -1.2091776811E+01   -1.2040750042E+01   -1.1990046911E+01   -1.1939667377E+01
   -1.1889609886E+01   -1.1839873431E+01   -1.1790458434E+01   -1.1741364234E+01
   -1.1692590995E+01   -1.1644139366E+01   -1.1596009432E+01   -1.1548201835E+01
   -1.1500717269E+01   -1.1453556329E+01   -1.1406719597E+01   -1.1360207653E+01
   -1.1314021331E+01   -1.1268160818E+01   -1.1222626446E+01   -1.1177419021E+01
   -1.1132538203E+01   -1.1087983960E+01   -1.1043756852E+01   -1.0999856019E+01
   -1.0956280984E+01   -1.0913031904E+01   -1.0870107481E+01   -1.0827506751E+01
   -1.0785229373E+01   -1.0743273722E+01   -1.0701638332E+01   -1.0660322328E+01
   -1.0619323858E+01   -1.0578640969E+01   -1.0538272250E+01   -1.0498215705E+01
   -1.0458468922E+01   -1.0419029981E+01   -1.0379896793E+01   -1.0341066534E+01
   -1.0302536807E+01   -1.0264305464E+01   -1.0226369317E+01   -1.0188725604E+01
   -1.0151371900E+01   -1.0114304954E+01   -1.0077521714E+01   -1.0041019281E+01
   -1.0004794580E+01   -9.9688444404E+00   -9.9331657614E+00   -9.8977554361E+00
   -9.8626104070E+00   -9.8277275951E+00   -9.7931038862E+00   -9.7587362483E+00
   -9.7246216321E+00   -9.6907569122E+00   -9.6571390434E+00   -9.6237651448E+00
   -9.5906322435E+00   -9.5577371438E+00   -9.5250772028E+00   -9.4926495808E+00
   -9.4604512884E+00   -9.4284795178E+00   -9.3967317352E+00   -9.3652052417E+00
   -9.3338970918E+00   -9.3028049293E+00   -9.2719262174E+00   -9.2412582886E+00
   -9.2107985167E+00   -9.1805447049E+00   -9.1504944418E+00   -9.1206450887E+00
   -9.0909944595E+00   -9.0615404013E+00   -9.0322806512E+00   -9.0032126390E+00
   -8.9743345751E+00   -8.9456443535E+00   -8.9171397675E+00   -8.8888186178E+00
   -8.8606791820E+00   -8.8327195021E+00   -8.8049374446E+00   -8.7773311435E+00
   -8.7498989390E+00   -8.7226390147E+00   -8.6955493284E+00   -8.6686282924E+00
   -8.6418743137E+00   -8.6152857087E+00   -8.5888605410E+00   -8.5625974419E+00
   -8.5364948917E+00   -8.5105513292E+00   -8.4847649340E+00   -8.4591344985E+00
   -8.4336585837E+00   -8.4083357358E+00   -8.3831642687E+00   -8.3581430708E+00
   -8.3332707911E+00   -8.3085460743E+00   -8.2839673722E+00   -8.2595336160E+00
   -8.2352435358E+00   -8.2110958616E+00   -8.1870891655E+00   -8.1632223906E+00
   -8.1394943335E+00   -8.1159037864E+00   -8.0924494114E+00   -8.0691301597E+00
   -8.0459448965E+00   -8.0228924683E+00   -7.9999716106E+00   -7.9771812803E+00
   -7.9545204179E+00   -7.9319879238E+00   -7.9095826166E+00   -7.8873034382E+00
   -7.8651494078E+00   -7.8431194769E+00   -7.8212125519E+00   -7.7994275445E+00
   -7.7777635540E+00   -7.7562195803E+00   -7.7347946213E+00   -7.7134875452E+00
   -7.6922975325E+00   -7.6712236297E+00   -7.6502648833E+00   -7.6294202472E+00
   -7.6086888434E+00   -7.5880698084E+00   -7.5675622331E+00   -7.5471651703E+00
   -7.5268776625E+00   -7.5066989396E+00   -7.4866281342E+00   -7.4666643794E+00
   -7.4468067004E+00   -7.4270543470E+00   -7.4074065156E+00   -7.3878623794E+00
   -7.3684210689E+00   -7.3490817251E+00   -7.3298436460E+00   -7.3107060431E+00
   -7.2916681280E+00   -7.2727290161E+00   -7.2538880129E+00   -7.2351443962E+00
   -7.2164974140E+00   -7.1979462948E+00   -7.1794902096E+00   -7.1611285433E+00
   -7.1428605788E+00   -7.1246855994E+00   -7.1066028284E+00   -7.0886115630E+00
   -7.0707111809E+00   -7.0529009986E+00   -7.0351803324E+00   -7.0175484089E+00
   -7.0000046308E+00   -6.9825483737E+00   -6.9651789858E+00   -6.9478958151E+00
   -6.9306980989E+00   -6.9135853249E+00   -6.8965568724E+00   -6.8796121201E+00
   -6.8627504287E+00   -6.8459711051E+00   -6.8292736500E+00   -6.8126574706E+00
   -6.7961219745E+00   -6.7796665400E+00   -6.7632905298E+00   -6.7469934592E+00
   -6.7307747632E+00   -6.7146338767E+00   -6.6985702014E+00   -6.6825831395E+00
   -6.6666722258E+00   -6.6508369217E+00   -6.6350766885E+00   -6.6193909559E+00
   -6.6037791502E+00   -6.5882408311E+00   -6.5727754849E+00   -6.5573825979E+00
   -6.5420616334E+00   -6.5268120270E+00   -6.5116333677E+00   -6.4965251655E+00
   -6.4814869308E+00   -6.4665181647E+00   -6.4516182988E+00   -6.4367869556E+00
   -6.4220236678E+00   -6.4073279687E+00   -6.3926993913E+00   -6.3781373823E+00
   -6.3636415698E+00   -6.3492115187E+00   -6.3348467839E+00   -6.3205469202E+00
   -6.3063114215E+00   -6.2921398814E+00   -6.2780319102E+00   -6.2639870834E+00
   -6.2500049767E+00   -6.2360851354E+00   -6.2222271078E+00   -6.2084305522E+00
   -6.1946950640E+00   -6.1810202385E+00   -6.1674056709E+00   -6.1538508729E+00
   -6.1403555344E+00   -6.1269192758E+00   -6.1135417111E+00   -6.1002224544E+00
   -6.0869610767E+00   -6.0737571976E+00   -6.0606104953E+00   -6.0475206019E+00
   -6.0344871494E+00   -6.0215097700E+00   -6.0085880129E+00   -5.9957216066E+00
   -5.9829102032E+00   -5.9701534517E+00   -5.9574510014E+00   -5.9448024683E+00
   -5.9322074892E+00   -5.9196657814E+00   -5.9071770104E+00   -5.8947408420E+00
   -5.8823569415E+00   -5.8700249134E+00   -5.8577444742E+00   -5.8455153265E+00
   -5.8333371515E+00   -5.8212096305E+00   -5.8091324422E+00   -5.7971051930E+00
   -5.7851276561E+00   -5.7731995275E+00   -5.7613205032E+00   -5.7494902791E+00
   -5.7377085320E+00   -5.7259749210E+00   -5.7142892157E+00   -5.7026511261E+00
   -5.6910603626E+00   -5.6795166352E+00   -5.6680196238E+00   -5.6565690268E+00
   -5.6451646150E+00   -5.6338061121E+00   -5.6224932416E+00   -5.6112257274E+00
   -5.6000032575E+00   -5.5888255568E+00   -5.5776924018E+00   -5.5666035291E+00
   -5.5555586754E+00   -5.5445575772E+00   -5.5335999359E+00   -5.5226854899E+00
   -5.5118140267E+00   -5.5009852953E+00   -5.4901990445E+00   -5.4794550230E+00
   -5.4687529503E+00   -5.4580925665E+00   -5.4474736747E+00   -5.4368960355E+00
   -5.4263594094E+00   -5.4158635569E+00   -5.4054082197E+00   -5.3949931286E+00
   -5.3846181067E+00   -5.3742829256E+00   -5.3639873569E+00   -5.3537311723E+00
   -5.3435141398E+00   -5.3333359713E+00   -5.3231965130E+00   -5.3130955472E+00
   -5.3030328562E+00   -5.2930082223E+00   -5.2830214279E+00   -5.2730722040E+00
   -5.2631603762E+00   -5.2532857524E+00   -5.2434481252E+00   -5.2336472871E+00
   -5.2238830304E+00   -5.2141551212E+00   -5.2044633431E+00   -5.1948075372E+00
   -5.1851875058E+00   -5.1756030509E+00   -5.1660539746E+00   -5.1565400792E+00
   -5.1470611057E+00   -5.1376169237E+00   -5.1282073468E+00   -5.1188321864E+00
   -5.1094912537E+00   -5.1001843603E+00   -5.0909112892E+00   -5.0816718493E+00
   -5.0724658951E+00   -5.0632932468E+00   -5.0541537245E+00   -5.0450471484E+00
   -5.0359733387E+00   -5.0269320636E+00   -5.0179231932E+00   -5.0089465649E+00
   -5.0000020071E+00   -4.9910893485E+00   -4.9822084176E+00   -4.9733590320E+00
   -4.9645409839E+00   -4.9557541584E+00   -4.9469983917E+00   -4.9382735206E+00
   -4.9295793815E+00   -4.9209158109E+00   -4.9122826203E+00   -4.9036796411E+00
   -4.8951067506E+00   -4.8865637929E+00   -4.8780506122E+00   -4.8695670527E+00
   -4.8611129584E+00   -4.8526881398E+00   -4.8442924557E+00   -4.8359257805E+00
   -4.8275879658E+00   -4.8192788628E+00   -4.8109983231E+00   -4.8027461979E+00
   -4.7945223014E+00   -4.7863265086E+00   -4.7781586960E+00   -4.7700187219E+00
   -4.7619064447E+00   -4.7538217226E+00   -4.7457644139E+00   -4.7377343406E+00
   -4.7297313839E+00   -4.7217554265E+00   -4.7138063334E+00   -4.7058839694E+00
   -4.6979881994E+00   -4.6901188885E+00   -4.6822758701E+00   -4.6744590224E+00
   -4.6666682384E+00   -4.6589033891E+00
  </PP_LOCAL>
 <PP_NONLOCAL>
   <PP_BETA.1
       type="real"
       size=" 602"
       columns="4"
       index="1"
       angular_momentum="0"
       cutoff_radius_index=" 340"
       cutoff_radius="    3.3900000000E+00" >
    0.0000000000E+00   -1.9505507808E-02   -3.9013204255E-02   -5.8525245590E-02
   -7.8043723383E-02   -9.7570632451E-02   -1.1710783909E-01   -1.3665704971E-01
   -1.5621978003E-01   -1.7579732483E-01   -1.9539072844E-01   -2.1500075604E-01
   -2.3462786591E-01   -2.5427218253E-01   -2.7393347095E-01   -2.9361111216E-01
   -3.1330407982E-01   -3.3301091823E-01   -3.5272972175E-01   -3.7245811568E-01
   -3.9219323863E-01   -4.1193172654E-01   -4.3166969826E-01   -4.5140274295E-01
   -4.7112590913E-01   -4.9083369547E-01   -5.1052004361E-01   -5.3017833252E-01
   -5.4980137502E-01   -5.6938141602E-01   -5.8891013275E-01   -6.0837863684E-01
   -6.2777747841E-01   -6.4709665195E-01   -6.6632560427E-01   -6.8545324420E-01
   -7.0446795422E-01   -7.2335760405E-01   -7.4210956582E-01   -7.6071073118E-01
   -7.7914753038E-01   -7.9740595260E-01   -8.1547156822E-01   -8.3332955272E-01
   -8.5096471198E-01   -8.6836150921E-01   -8.8550409322E-01   -9.0237632758E-01
   -9.1896182243E-01   -9.3524396644E-01   -9.5120595964E-01   -9.6683084595E-01
   -9.8210155313E-01   -9.9700092501E-01   -1.0115117565E+00   -1.0256168400E+00
   -1.0392989894E+00   -1.0525410964E+00   -1.0653261488E+00   -1.0776372931E+00
   -1.0894578498E+00   -1.1007713753E+00   -1.1115616868E+00   -1.1218129016E+00
   -1.1315094928E+00   -1.1406363087E+00   -1.1491786146E+00   -1.1571221495E+00
   -1.1644531432E+00   -1.1711583574E+00   -1.1772251219E+00   -1.1826413842E+00
   -1.1873957259E+00   -1.1914774019E+00   -1.1948763728E+00   -1.1975833340E+00
   -1.1995897475E+00   -1.2008878775E+00   -1.2014708053E+00   -1.2013324597E+00
   -1.2004676406E+00   -1.1988720414E+00   -1.1965422697E+00   -1.1934758659E+00
   -1.1896713204E+00   -1.1851280887E+00   -1.1798466051E+00   -1.1738282934E+00
   -1.1670755770E+00   -1.1595918858E+00   -1.1513816620E+00   -1.1424503634E+00