<UPF version="2.0.1">
  <PP_INFO>

 This pseudopotential file has been produced using the code
 ONCVPSP  (Optimized Norm-Conservinng Vanderbilt PSeudopotential)
 scalar-relativistic version 2.1.1, 03/26/2014 by D. R. Hamann
 The code is available through a link at URL www.mat-simresearch.com.
 Documentation with the package provides a full discription of the
 input data below.


 While it is not required under the terms of the GNU GPL, it is
 suggested that you cite D. R. Hamann, Phys. Rev. B 88, 085117 (2013)
 in any publication using these pseudopotentials.


 Copyright 2015 The Regents of the University of California
 
 This work is licensed under the Creative Commons Attribution-ShareAlike 
 4.0 International License. To view a copy of this license, visit 
 http://creativecommons.org/licenses/by-sa/4.0/ or send a letter to 
 Creative Commons, PO Box 1866, Mountain View, CA 94042, USA.
 
 This pseudopotential is part of the Schlipf-Gygi norm-conserving 
 pseudopotential library. Its construction parameters were tuned to 
 reproduce materials of a training set with very high accuracy and 
 should be suitable as a general purpose pseudopotential to treat a 
 variety of different compounds. For details of the construction and 
 testing of the pseudopotential please refer to:
 
 [insert reference to paper here]
 
 We kindly ask that you include this reference in all publications 
 associated to this pseudopotential.


    <PP_INPUTFILE>
# ATOM AND REFERENCE CONFIGURATION
# atsym  z    nc    nv    iexc   psfile
  Ta 73.00     9     5     4      upf
#
#   n    l    f        energy (Ha)
    1    0    2.00
    2    0    2.00
    2    1    6.00
    3    0    2.00
    3    1    6.00
    3    2   10.00
    4    0    2.00
    4    1    6.00
    4    2   10.00
    4    3   14.00
    5    0    2.00
    5    1    6.00
    6    0    2.00
    5    2    3.00
#
# PSEUDOPOTENTIAL AND OPTIMIZATION
# lmax
    3
#
#   l,   rc,     ep,   ncon, nbas, qcut
    0   2.25368  -2.68280    5    8   7.29305
    1   2.17446  -1.44789    5    8   7.39495
    2   2.02427  -0.13196    5    8   7.64984
    3   2.96514  -0.90787    5    8   7.18998
#
# LOCAL POTENTIAL
# lloc, lpopt,  rc(5),   dvloc0
    4    5   1.84003      0.00000
#
# VANDERBILT-KLEINMAN-BYLANDER PROJECTORs
# l, nproj, debl
    0    2   2.48279
    1    2   1.39677
    2    2   0.97855
    3    2   1.16935
#
# MODEL CORE CHARGE
# icmod, fcfact
    0   0.00000
#
# LOG DERIVATIVE ANALYSIS
# epsh1, epsh2, depsh
   -5.00    3.00    0.02
#
# OUTPUT GRID
# rlmax, drl
    6.00    0.01
#
# TEST CONFIGURATIONS
# ncnf
    0
# nvcnf
#   n    l    f
    </PP_INPUTFILE>
  </PP_INFO>
  <!--                               -->
  <!-- END OF HUMAN READABLE SECTION -->
  <!--                               -->
    <PP_HEADER
       generated="Generated using ONCVPSP code by D. R. Hamann"
       author="Martin Schlipf and Francois Gygi"
       date="150105"
       comment=""
       element="Ta"
       pseudo_type="NC"
       relativistic="scalar"
       is_ultrasoft="F"
       is_paw="F"
       is_coulomb="F"
       has_so="F"
       has_wfc="F"
       has_gipaw="F"
       core_correction="F"
       functional="PBE"
       z_valence="   27.00"
       total_psenergy="  -2.47974122663E+02"
       rho_cutoff="   6.01000000000E+00"
       l_max="3"
       l_local="-1"
       mesh_size="   602"
       number_of_wfc="0"
       number_of_proj="8"/>
 <PP_MESH>
   <PP_R type="real"  size=" 602" columns="8">
    0.0000    0.0100    0.0200    0.0300    0.0400    0.0500    0.0600    0.0700
    0.0800    0.0900    0.1000    0.1100    0.1200    0.1300    0.1400    0.1500
    0.1600    0.1700    0.1800    0.1900    0.2000    0.2100    0.2200    0.2300
    0.2400    0.2500    0.2600    0.2700    0.2800    0.2900    0.3000    0.3100
    0.3200    0.3300    0.3400    0.3500    0.3600    0.3700    0.3800    0.3900
    0.4000    0.4100    0.4200    0.4300    0.4400    0.4500    0.4600    0.4700
    0.4800    0.4900    0.5000    0.5100    0.5200    0.5300    0.5400    0.5500
    0.5600    0.5700    0.5800    0.5900    0.6000    0.6100    0.6200    0.6300
    0.6400    0.6500    0.6600    0.6700    0.6800    0.6900    0.7000    0.7100
    0.7200    0.7300    0.7400    0.7500    0.7600    0.7700    0.7800    0.7900
    0.8000    0.8100    0.8200    0.8300    0.8400    0.8500    0.8600    0.8700
    0.8800    0.8900    0.9000    0.9100    0.9200    0.9300    0.9400    0.9500
    0.9600    0.9700    0.9800    0.9900    1.0000    1.0100    1.0200    1.0300
    1.0400    1.0500    1.0600    1.0700    1.0800    1.0900    1.1000    1.1100
    1.1200    1.1300    1.1400    1.1500    1.1600    1.1700    1.1800    1.1900
    1.2000    1.2100    1.2200    1.2300    1.2400    1.2500    1.2600    1.2700
    1.2800    1.2900    1.3000    1.3100    1.3200    1.3300    1.3400    1.3500
    1.3600    1.3700    1.3800    1.3900    1.4000    1.4100    1.4200    1.4300
    1.4400    1.4500    1.4600    1.4700    1.4800    1.4900    1.5000    1.5100
    1.5200    1.5300    1.5400    1.5500    1.5600    1.5700    1.5800    1.5900
    1.6000    1.6100    1.6200    1.6300    1.6400    1.6500    1.6600    1.6700
    1.6800    1.6900    1.7000    1.7100    1.7200    1.7300    1.7400    1.7500
    1.7600    1.7700    1.7800    1.7900    1.8000    1.8100    1.8200    1.8300
    1.8400    1.8500    1.8600    1.8700    1.8800    1.8900    1.9000    1.9100
    1.9200    1.9300    1.9400    1.9500    1.9600    1.9700    1.9800    1.9900
    2.0000    2.0100    2.0200    2.0300    2.0400    2.0500    2.0600    2.0700
    2.0800    2.0900    2.1000    2.1100    2.1200    2.1300    2.1400    2.1500
    2.1600    2.1700    2.1800    2.1900    2.2000    2.2100    2.2200    2.2300
    2.2400    2.2500    2.2600    2.2700    2.2800    2.2900    2.3000    2.3100
    2.3200    2.3300    2.3400    2.3500    2.3600    2.3700    2.3800    2.3900
    2.4000    2.4100    2.4200    2.4300    2.4400    2.4500    2.4600    2.4700
    2.4800    2.4900    2.5000    2.5100    2.5200    2.5300    2.5400    2.5500
    2.5600    2.5700    2.5800    2.5900    2.6000    2.6100    2.6200    2.6300
    2.6400    2.6500    2.6600    2.6700    2.6800    2.6900    2.7000    2.7100
    2.7200    2.7300    2.7400    2.7500    2.7600    2.7700    2.7800    2.7900
    2.8000    2.8100    2.8200    2.8300    2.8400    2.8500    2.8600    2.8700
    2.8800    2.8900    2.9000    2.9100    2.9200    2.9300    2.9400    2.9500
    2.9600    2.9700    2.9800    2.9900    3.0000    3.0100    3.0200    3.0300
    3.0400    3.0500    3.0600    3.0700    3.0800    3.0900    3.1000    3.1100
    3.1200    3.1300    3.1400    3.1500    3.1600    3.1700    3.1800    3.1900
    3.2000    3.2100    3.2200    3.2300    3.2400    3.2500    3.2600    3.2700
    3.2800    3.2900    3.3000    3.3100    3.3200    3.3300    3.3400    3.3500
    3.3600    3.3700    3.3800    3.3900    3.4000    3.4100    3.4200    3.4300
    3.4400    3.4500    3.4600    3.4700    3.4800    3.4900    3.5000    3.5100
    3.5200    3.5300    3.5400    3.5500    3.5600    3.5700    3.5800    3.5900
    3.6000    3.6100    3.6200    3.6300    3.6400    3.6500    3.6600    3.6700
    3.6800    3.6900    3.7000    3.7100    3.7200    3.7300    3.7400    3.7500
    3.7600    3.7700    3.7800    3.7900    3.8000    3.8100    3.8200    3.8300
    3.8400    3.8500    3.8600    3.8700    3.8800    3.8900    3.9000    3.9100
    3.9200    3.9300    3.9400    3.9500    3.9600    3.9700    3.9800    3.9900
    4.0000    4.0100    4.0200    4.0300    4.0400    4.0500    4.0600    4.0700
    4.0800    4.0900    4.1000    4.1100    4.1200    4.1300    4.1400    4.1500
    4.1600    4.1700    4.1800    4.1900    4.2000    4.2100    4.2200    4.2300
    4.2400    4.2500    4.2600    4.2700    4.2800    4.2900    4.3000    4.3100
    4.3200    4.3300    4.3400    4.3500    4.3600    4.3700    4.3800    4.3900
    4.4000    4.4100    4.4200    4.4300    4.4400    4.4500    4.4600    4.4700
    4.4800    4.4900    4.5000    4.5100    4.5200    4.5300    4.5400    4.5500
    4.5600    4.5700    4.5800    4.5900    4.6000    4.6100    4.6200    4.6300
    4.6400    4.6500    4.6600    4.6700    4.6800    4.6900    4.7000    4.7100
    4.7200    4.7300    4.7400    4.7500    4.7600    4.7700    4.7800    4.7900
    4.8000    4.8100    4.8200    4.8300    4.8400    4.8500    4.8600    4.8700
    4.8800    4.8900    4.9000    4.9100    4.9200    4.9300    4.9400    4.9500
    4.9600    4.9700    4.9800    4.9900    5.0000    5.0100    5.0200    5.0300
    5.0400    5.0500    5.0600    5.0700    5.0800    5.0900    5.1000    5.1100
    5.1200    5.1300    5.1400    5.1500    5.1600    5.1700    5.1800    5.1900
    5.2000    5.2100    5.2200    5.2300    5.2400    5.2500    5.2600    5.2700
    5.2800    5.2900    5.3000    5.3100    5.3200    5.3300    5.3400    5.3500
    5.3600    5.3700    5.3800    5.3900    5.4000    5.4100    5.4200    5.4300
    5.4400    5.4500    5.4600    5.4700    5.4800    5.4900    5.5000    5.5100
    5.5200    5.5300    5.5400    5.5500    5.5600    5.5700    5.5800    5.5900
    5.6000    5.6100    5.6200    5.6300    5.6400    5.6500    5.6600    5.6700
    5.6800    5.6900    5.7000    5.7100    5.7200    5.7300    5.7400    5.7500
    5.7600    5.7700    5.7800    5.7900    5.8000    5.8100    5.8200    5.8300
    5.8400    5.8500    5.8600    5.8700    5.8800    5.8900    5.9000    5.9100
    5.9200    5.9300    5.9400    5.9500    5.9600    5.9700    5.9800    5.9900
    6.0000    6.0100
   </PP_R>
   <PP_RAB type="real"  size=" 602" columns="8">
    0.0100    0.0100    0.0100    0.0100    0.0100    0.0100    0.0100    0.0100
    0.0100    0.0100    0.0100    0.0100    0.0100    0.0100    0.0100    0.0100
    0.0100    0.0100    0.0100    0.0100    0.0100    0.0100    0.0100    0.0100
    0.0100    0.0100    0.0100    0.0100    0.0100    0.0100    0.0100    0.0100
    0.0100    0.0100    0.0100    0.0100    0.0100    0.0100    0.0100    0.0100
    0.0100    0.0100    0.0100    0.0100    0.0100    0.0100    0.0100    0.0100
    0.0100    0.0100    0.0100    0.0100    0.0100    0.0100    0.0100    0.0100
    0.0100    0.0100    0.0100    0.0100    0.0100    0.0100    0.0100    0.0100
    0.0100    0.0100    0.0100    0.0100    0.0100    0.0100    0.0100    0.0100
    0.0100    0.0100    0.0100    0.0100    0.0100    0.0100    0.0100    0.0100
    0.0100    0.0100    0.0100    0.0100    0.0100    0.0100    0.0100    0.0100
    0.0100    0.0100    0.0100    0.0100    0.0100    0.0100    0.0100    0.0100
    0.0100    0.0100    0.0100    0.0100    0.0100    0.0100    0.0100    0.0100
    0.0100    0.0100    0.0100    0.0100    0.0100    0.0100    0.0100    0.0100
    0.0100    0.0100    0.0100    0.0100    0.0100    0.0100    0.0100    0.0100
    0.0100    0.0100    0.0100    0.0100    0.0100    0.0100    0.0100    0.0100
    0.0100    0.0100    0.0100    0.0100    0.0100    0.0100    0.0100    0.0100
    0.0100    0.0100    0.0100    0.0100    0.0100    0.0100    0.0100    0.0100
    0.0100    0.0100    0.0100    0.0100    0.0100    0.0100    0.0100    0.0100
    0.0100    0.0100    0.0100    0.0100    0.0100    0.0100    0.0100    0.0100
    0.0100    0.0100    0.0100    0.0100    0.0100    0.0100    0.0100    0.0100
    0.0100    0.0100    0.0100    0.0100    0.0100    0.0100    0.0100    0.0100
    0.0100    0.0100    0.0100    0.0100    0.0100    0.0100    0.0100    0.0100
    0.0100    0.0100    0.0100    0.0100    0.0100    0.0100    0.0100    0.0100
    0.0100    0.0100    0.0100    0.0100    0.0100    0.0100    0.0100    0.0100
    0.0100    0.0100    0.0100    0.0100    0.0100    0.0100    0.0100    0.0100
    0.0100    0.0100    0.0100    0.0100    0.0100    0.0100    0.0100    0.0100
    0.0100    0.0100    0.0100    0.0100    0.0100    0.0100    0.0100    0.0100
    0.0100    0.0100    0.0100    0.0100    0.0100    0.0100    0.0100    0.0100
    0.0100    0.0100    0.0100    0.0100    0.0100    0.0100    0.0100    0.0100
    0.0100    0.0100    0.0100    0.0100    0.0100    0.0100    0.0100    0.0100
    0.0100    0.0100    0.0100    0.0100    0.0100    0.0100    0.0100    0.0100
    0.0100    0.0100    0.0100    0.0100    0.0100    0.0100    0.0100    0.0100
    0.0100    0.0100    0.0100    0.0100    0.0100    0.0100    0.0100    0.0100
    0.0100    0.0100    0.0100    0.0100    0.0100    0.0100    0.0100    0.0100
    0.0100    0.0100    0.0100    0.0100    0.0100    0.0100    0.0100    0.0100
    0.0100    0.0100    0.0100    0.0100    0.0100    0.0100    0.0100    0.0100
    0.0100    0.0100    0.0100    0.0100    0.0100    0.0100    0.0100    0.0100
    0.0100    0.0100    0.0100    0.0100    0.0100    0.0100    0.0100    0.0100
    0.0100    0.0100    0.0100    0.0100    0.0100    0.0100    0.0100    0.0100
    0.0100    0.0100    0.0100    0.0100    0.0100    0.0100    0.0100    0.0100
    0.0100    0.0100    0.0100    0.0100    0.0100    0.0100    0.0100    0.0100
    0.0100    0.0100    0.0100    0.0100    0.0100    0.0100    0.0100    0.0100
    0.0100    0.0100    0.0100    0.0100    0.0100    0.0100    0.0100    0.0100
    0.0100    0.0100    0.0100    0.0100    0.0100    0.0100    0.0100    0.0100
    0.0100    0.0100    0.0100    0.0100    0.0100    0.0100    0.0100    0.0100
    0.0100    0.0100    0.0100    0.0100    0.0100    0.0100    0.0100    0.0100
    0.0100    0.0100    0.0100    0.0100    0.0100    0.0100    0.0100    0.0100
    0.0100    0.0100    0.0100    0.0100    0.0100    0.0100    0.0100    0.0100
    0.0100    0.0100    0.0100    0.0100    0.0100    0.0100    0.0100    0.0100
    0.0100    0.0100    0.0100    0.0100    0.0100    0.0100    0.0100    0.0100
    0.0100    0.0100    0.0100    0.0100    0.0100    0.0100    0.0100    0.0100
    0.0100    0.0100    0.0100    0.0100    0.0100    0.0100    0.0100    0.0100
    0.0100    0.0100    0.0100    0.0100    0.0100    0.0100    0.0100    0.0100
    0.0100    0.0100    0.0100    0.0100    0.0100    0.0100    0.0100    0.0100
    0.0100    0.0100    0.0100    0.0100    0.0100    0.0100    0.0100    0.0100
    0.0100    0.0100    0.0100    0.0100    0.0100    0.0100    0.0100    0.0100
    0.0100    0.0100    0.0100    0.0100    0.0100    0.0100    0.0100    0.0100
    0.0100    0.0100    0.0100    0.0100    0.0100    0.0100    0.0100    0.0100
    0.0100    0.0100    0.0100    0.0100    0.0100    0.0100    0.0100    0.0100
    0.0100    0.0100    0.0100    0.0100    0.0100    0.0100    0.0100    0.0100
    0.0100    0.0100    0.0100    0.0100    0.0100    0.0100    0.0100    0.0100
    0.0100    0.0100    0.0100    0.0100    0.0100    0.0100    0.0100    0.0100
    0.0100    0.0100    0.0100    0.0100    0.0100    0.0100    0.0100    0.0100
    0.0100    0.0100    0.0100    0.0100    0.0100    0.0100    0.0100    0.0100
    0.0100    0.0100    0.0100    0.0100    0.0100    0.0100    0.0100    0.0100
    0.0100    0.0100    0.0100    0.0100    0.0100    0.0100    0.0100    0.0100
    0.0100    0.0100    0.0100    0.0100    0.0100    0.0100    0.0100    0.0100
    0.0100    0.0100    0.0100    0.0100    0.0100    0.0100    0.0100    0.0100
    0.0100    0.0100    0.0100    0.0100    0.0100    0.0100    0.0100    0.0100
    0.0100    0.0100    0.0100    0.0100    0.0100    0.0100    0.0100    0.0100
    0.0100    0.0100    0.0100    0.0100    0.0100    0.0100    0.0100    0.0100
    0.0100    0.0100    0.0100    0.0100    0.0100    0.0100    0.0100    0.0100
    0.0100    0.0100    0.0100    0.0100    0.0100    0.0100    0.0100    0.0100
    0.0100    0.0100    0.0100    0.0100    0.0100    0.0100    0.0100    0.0100
    0.0100    0.0100
   </PP_RAB>
 </PP_MESH>
  <PP_LOCAL type="real"  size=" 602" columns="4">
   -5.5410386667E+01   -5.5412980974E+01   -5.5422025694E+01   -5.5435716973E+01
   -5.5452250955E+01   -5.5469560338E+01   -5.5485614093E+01   -5.5498650497E+01
   -5.5507313971E+01   -5.5510697992E+01   -5.5508316501E+01   -5.5500032911E+01
   -5.5485972673E+01   -5.5466437773E+01   -5.5441833494E+01   -5.5412611408E+01
   -5.5379228534E+01   -5.5342120413E+01   -5.5301685140E+01   -5.5258275387E+01
   -5.5212195888E+01   -5.5163704442E+01   -5.5113014919E+01   -5.5060301324E+01
   -5.5005702220E+01   -5.4949325147E+01   -5.4891250754E+01   -5.4831536613E+01
   -5.4770220590E+01   -5.4707323871E+01   -5.4642853617E+01   -5.4576805302E+01
   -5.4509164766E+01   -5.4439910051E+01   -5.4369013029E+01   -5.4296440822E+01
   -5.4222157117E+01   -5.4146123305E+01   -5.4068299514E+01   -5.3988645536E+01
   -5.3907121633E+01   -5.3823689264E+01   -5.3738311705E+01   -5.3650954591E+01
   -5.3561586365E+01   -5.3470178642E+01   -5.3376706505E+01   -5.3281148719E+01
   -5.3183487871E+01   -5.3083710444E+01   -5.2981806811E+01   -5.2877771241E+01
   -5.2771601785E+01   -5.2663300096E+01   -5.2552871367E+01   -5.2440324027E+01
   -5.2325669584E+01   -5.2208922364E+01   -5.2090099257E+01   -5.1969219455E+01
   -5.1846304206E+01   -5.1721376488E+01   -5.1594460825E+01   -5.1465582933E+01
   -5.1334769507E+01   -5.1202047951E+01   -5.1067446111E+01   -5.0930992039E+01
   -5.0792713739E+01   -5.0652638932E+01   -5.0510794824E+01   -5.0367207893E+01
   -5.0221903614E+01   -5.0074906279E+01   -4.9926238763E+01   -4.9775922309E+01
   -4.9623976311E+01   -4.9470418101E+01   -4.9315262758E+01   -4.9158522868E+01
   -4.9000208352E+01   -4.8840326303E+01   -4.8678880823E+01   -4.8515872896E+01
   -4.8351300296E+01   -4.8185157537E+01   -4.8017435887E+01   -4.7848123435E+01
   -4.7677205250E+01   -4.7504663609E+01   -4.7330478335E+01   -4.7154627231E+01
   -4.6977086590E+01   -4.6797831842E+01   -4.6616838322E+01   -4.6434082088E+01
   -4.6249540830E+01   -4.6063194820E+01   -4.5875027907E+01   -4.5685028484E+01
   -4.5493190148E+01   -4.5299513272E+01   -4.5104005459E+01   -4.4906682094E+01
   -4.4707566912E+01   -4.4506692206E+01   -4.4304098678E+01   -4.4099837122E+01
   -4.3893966318E+01   -4.3686553171E+01   -4.3477671766E+01   -4.3267403811E+01
   -4.3055837380E+01   -4.2843065369E+01   -4.2629184796E+01   -4.2414296619E+01
   -4.2198504312E+01   -4.1981912670E+01   -4.1764627479E+01   -4.1546754692E+01
   -4.1328399430E+01   -4.1109665948E+01   -4.0890656919E+01   -4.0671472502E+01
   -4.0452211025E+01   -4.0232968573E+01   -4.0013837505E+01   -3.9794908196E+01
   -3.9576268509E+01   -3.9358002167E+01   -3.9140191186E+01   -3.8922914736E+01
   -3.8706248173E+01   -3.8490265546E+01   -3.8275037417E+01   -3.8060631391E+01
   -3.7847114128E+01   -3.7634547683E+01   -3.7422992786E+01   -3.7212507999E+01
   -3.7003147722E+01   -3.6794966019E+01   -3.6588012273E+01   -3.6382334143E+01
   -3.6177977147E+01   -3.5974981779E+01   -3.5773389005E+01   -3.5573232762E+01
   -3.5374546888E+01   -3.5177360311E+01   -3.4981698332E+01   -3.4787584580E+01
   -3.4595035132E+01   -3.4404067872E+01   -3.4214689809E+01   -3.4026910748E+01
   -3.3840730402E+01   -3.3656149168E+01   -3.3473159843E+01   -3.3291753421E+01
   -3.3111915919E+01   -3.2933629676E+01   -3.2756874301E+01   -3.2581624882E+01
   -3.2407855346E+01   -3.2235535528E+01   -3.2064634841E+01   -3.1895120296E+01
   -3.1726958444E+01   -3.1560116072E+01   -3.1394558974E+01   -3.1230256141E+01
   -3.1067175055E+01   -3.0905288849E+01   -3.0744569243E+01   -3.0584994736E+01
   -3.0426543613E+01   -3.0269200201E+01   -3.0112951045E+01   -2.9957786158E+01
   -2.9803701019E+01   -2.9650690867E+01   -2.9498759452E+01   -2.9347906775E+01
   -2.9198143030E+01   -2.9049472023E+01   -2.8901909111E+01   -2.8755464164E+01
   -2.8610154119E+01   -2.8465995234E+01   -2.8323004647E+01   -2.8181200916E+01
   -2.8040601747E+01   -2.7901222707E+01   -2.7763083141E+01   -2.7626192027E+01
   -2.7490565426E+01   -2.7356208461E+01   -2.7223127089E+01   -2.7091325389E+01
   -2.6960793562E+01   -2.6831535568E+01   -2.6703528134E+01   -2.6576761255E+01
   -2.6451211956E+01   -2.6326850769E+01   -2.6203655442E+01   -2.6081584281E+01
   -2.5960605178E+01   -2.5840678238E+01   -2.5721761975E+01   -2.5603816277E+01
   -2.5486802558E+01   -2.5370677499E+01   -2.5255408228E+01   -2.5140962405E+01
   -2.5027301287E+01   -2.4914410609E+01   -2.4802260604E+01   -2.4690836182E+01
   -2.4580132020E+01   -2.4470127065E+01   -2.4360829542E+01   -2.4252237111E+01
   -2.4144348508E+01   -2.4037176076E+01   -2.3930724241E+01   -2.3825002841E+01
   -2.3720023467E+01   -2.3615796473E+01   -2.3512331630E+01   -2.3409639483E+01
   -2.3307731300E+01   -2.3206612027E+01   -2.3106291038E+01   -2.3006774829E+01
   -2.2908064256E+01   -2.2810165915E+01   -2.2713079919E+01   -2.2616804035E+01
   -2.2521341246E+01   -2.2426686365E+01   -2.2332834752E+01   -2.2239785629E+01
   -2.2147530523E+01   -2.2056062968E+01   -2.1965378865E+01   -2.1875468323E+01
   -2.1786323605E+01   -2.1697937888E+01   -2.1610301277E+01   -2.1523405068E+01
   -2.1437240898E+01   -2.1351799150E+01   -2.1267070685E+01   -2.1183046380E+01
   -2.1099717052E+01   -2.1017073530E+01   -2.0935106388E+01   -2.0853806953E+01
   -2.0773166270E+01   -2.0693174929E+01   -2.0613824713E+01   -2.0535107025E+01
   -2.0457012744E+01   -2.0379533949E+01   -2.0302662516E+01   -2.0226389759E+01
   -2.0150707940E+01   -2.0075609473E+01   -2.0001086195E+01   -1.9927130457E+01
   -1.9853735253E+01   -1.9780893016E+01   -1.9708596088E+01   -1.9636838086E+01
   -1.9565612066E+01   -1.9494910370E+01   -1.9424727171E+01   -1.9355056002E+01
   -1.9285889842E+01   -1.9217222727E+01   -1.9149048897E+01   -1.9081362052E+01
   -1.9014155969E+01   -1.8947425612E+01   -1.8881165384E+01   -1.8815368973E+01
   -1.8750031807E+01   -1.8685148798E+01   -1.8620714399E+01   -1.8556723601E+01
   -1.8493172069E+01   -1.8430055047E+01   -1.8367367091E+01   -1.8305104507E+01
   -1.8243262910E+01   -1.8181837630E+01   -1.8120824404E+01   -1.8060219439E+01
   -1.8000018639E+01   -1.7940217541E+01   -1.7880812567E+01   -1.7821799848E+01
   -1.7763175362E+01   -1.7704935142E+01   -1.7647075712E+01   -1.7589593347E+01
   -1.7532484059E+01   -1.7475744383E+01   -1.7419370896E+01   -1.7363360052E+01
   -1.7307707954E+01   -1.7252411566E+01   -1.7197467508E+01   -1.7142872302E+01
   -1.7088622440E+01   -1.7034714960E+01   -1.6981146637E+01   -1.6927914075E+01
   -1.6875014112E+01   -1.6822443854E+01   -1.6770200230E+01   -1.6718279937E+01
   -1.6666680104E+01   -1.6615397918E+01   -1.6564430449E+01   -1.6513774503E+01
   -1.6463427449E+01   -1.6413386563E+01   -1.6363649051E+01   -1.6314211836E+01
   -1.6265072480E+01   -1.6216228358E+01   -1.6167676808E+01   -1.6119414877E+01
   -1.6071440276E+01   -1.6023750490E+01   -1.5976342980E+01   -1.5929214928E+01
   -1.5882364149E+01   -1.5835788252E+01   -1.5789484814E+01   -1.5743451157E+01
   -1.5697685166E+01   -1.5652184577E+01   -1.5606947083E+01   -1.5561970151E+01
   -1.5517251699E+01   -1.5472789601E+01   -1.5428581657E+01   -1.5384625491E+01
   -1.5340919016E+01   -1.5297460253E+01   -1.5254247103E+01   -1.5211277356E+01
   -1.5168548888E+01   -1.5126059872E+01   -1.5083808308E+01   -1.5041792156E+01
   -1.5000009230E+01   -1.4958457858E+01   -1.4917136131E+01   -1.4876042144E+01
   -1.4835173765E+01   -1.4794529334E+01   -1.4754107081E+01   -1.4713905186E+01
   -1.4673921704E+01   -1.4634154841E+01   -1.4594603003E+01   -1.4555264457E+01
   -1.4516137453E+01   -1.4477220040E+01   -1.4438510800E+01   -1.4400008082E+01
   -1.4361710232E+01   -1.4323615446E+01   -1.4285722162E+01   -1.4248028909E+01
   -1.4210534111E+01   -1.4173236171E+01   -1.4136133314E+01   -1.4099224263E+01
   -1.4062507512E+01   -1.4025981561E+01   -1.3989644782E+01   -1.3953495711E+01
   -1.3917533035E+01   -1.3881755322E+01   -1.3846161139E+01   -1.3810748849E+01
   -1.3775517253E+01   -1.3740465013E+01   -1.3705590764E+01   -1.3670893093E+01
   -1.3636370510E+01   -1.3602021896E+01   -1.3567845948E+01   -1.3533841364E+01
   -1.3500006737E+01   -1.3466340774E+01   -1.3432842357E+01   -1.3399510243E+01
   -1.3366343190E+01   -1.3333339811E+01   -1.3300498975E+01   -1.3267819571E+01
   -1.3235300416E+01   -1.3202940327E+01   -1.3170737945E+01   -1.3138692265E+01
   -1.3106802198E+01   -1.3075066616E+01   -1.3043484390E+01   -1.3012054205E+01
   -1.2980775145E+01   -1.2949646155E+01   -1.2918666160E+01   -1.2887834082E+01
   -1.2857148657E+01   -1.2826609031E+01   -1.2796214191E+01   -1.2765963112E+01
   -1.2735854767E+01   -1.2705887952E+01   -1.2676061843E+01   -1.2646375482E+01
   -1.2616827891E+01   -1.2587418090E+01   -1.2558144944E+01   -1.2529007634E+01
   -1.2500005263E+01   -1.2471136898E+01   -1.2442401609E+01   -1.2413798333E+01
   -1.2385326231E+01   -1.2356984477E+01   -1.2328772183E+01   -1.2300688460E+01
   -1.2272732333E+01   -1.2244902914E+01   -1.2217199458E+01   -1.2189621118E+01
   -1.2162167046E+01   -1.2134836361E+01   -1.2107628108E+01   -1.2080541625E+01
   -1.2053576106E+01   -1.2026730741E+01   -1.2000004724E+01   -1.1973397095E+01
   -1.1946907201E+01   -1.1920534298E+01   -1.1894277615E+01   -1.1868136383E+01
   -1.1842109754E+01   -1.1816196951E+01   -1.1790397339E+01   -1.1764710183E+01
   -1.1739134747E+01   -1.1713670298E+01   -1.1688315938E+01   -1.1663071123E+01
   -1.1637935158E+01   -1.1612907343E+01   -1.1587986977E+01   -1.1563173286E+01
   -1.1538465564E+01   -1.1513863237E+01   -1.1489365637E+01   -1.1464972096E+01
   -1.1440681947E+01   -1.1416494386E+01   -1.1392408881E+01   -1.1368424821E+01
   -1.1344541571E+01   -1.1320758492E+01   -1.1297074920E+01   -1.1273490123E+01
   -1.1250003622E+01   -1.1226614812E+01   -1.1203323084E+01   -1.1180127833E+01
   -1.1157028381E+01   -1.1134024117E+01   -1.1111114549E+01   -1.1088299097E+01
   -1.1065577184E+01   -1.1042948231E+01   -1.1020411561E+01   -1.0997966656E+01
   -1.0975613018E+01   -1.0953350096E+01   -1.0931177338E+01   -1.0909094192E+01
   -1.0887099994E+01   -1.0865194290E+01   -1.0843376588E+01   -1.0821646362E+01
   -1.0800003087E+01   -1.0778446236E+01   -1.0756975165E+01   -1.0735589461E+01
   -1.0714288648E+01   -1.0693072224E+01   -1.0671939688E+01   -1.0650890538E+01
   -1.0629924159E+01   -1.0609040155E+01   -1.0588238075E+01   -1.0567517441E+01
   -1.0546877775E+01   -1.0526318598E+01   -1.0505839332E+01   -1.0485439577E+01
   -1.0465118916E+01   -1.0444876892E+01   -1.0424713050E+01   -1.0404626933E+01
   -1.0384618009E+01   -1.0364685853E+01   -1.0344830088E+01   -1.0325050279E+01
   -1.0305345992E+01   -1.0285716792E+01   -1.0266162201E+01   -1.0246681747E+01
   -1.0227275103E+01   -1.0207941855E+01   -1.0188681589E+01   -1.0169493889E+01
   -1.0150378339E+01   -1.0131334404E+01   -1.0112361813E+01   -1.0093460170E+01
   -1.0074629080E+01   -1.0055868149E+01   -1.0037176981E+01   -1.0018555101E+01
   -1.0000002161E+01   -9.9815178282E+00   -9.9631017271E+00   -9.9447534809E+00
   -9.9264727128E+00   -9.9082590237E+00   -9.8901119631E+00   -9.8720312711E+00
   -9.8540165886E+00   -9.8360675566E+00   -9.8181838160E+00   -9.8003650077E+00
   -9.7826106955E+00   -9.7649205652E+00   -9.7472943171E+00   -9.7297316088E+00
   -9.7122320980E+00   -9.6947954424E+00   -9.6774212962E+00   -9.6601092088E+00
   -9.6428589656E+00   -9.6256702400E+00   -9.6085427058E+00   -9.5914760366E+00
   -9.5744699059E+00   -9.5575239492E+00   -9.5406378070E+00   -9.5238112441E+00
   -9.5070439493E+00   -9.4903356113E+00   -9.4736859191E+00   -9.4570945613E+00
   -9.4405611648E+00   -9.4240854385E+00   -9.4076671355E+00   -9.3913059588E+00
   -9.3750016120E+00   -9.3587537983E+00   -9.3425622210E+00   -9.3264265074E+00
   -9.3103464133E+00   -9.2943216886E+00   -9.2783520506E+00   -9.2624372163E+00
   -9.2465769030E+00   -9.2307708277E+00   -9.2150186270E+00   -9.1993200826E+00
   -9.1836749506E+00   -9.1680829611E+00   -9.1525438446E+00   -9.1370573313E+00
   -9.1216231515E+00   -9.1062409594E+00   -9.0909105429E+00   -9.0756316723E+00
   -9.0604040907E+00   -9.0452275408E+00   -9.0301017656E+00   -9.0150265079E+00
   -9.0000014467E+00   -8.9850263584E+00
  </PP_LOCAL>
 <PP_NONLOCAL>
   <PP_BETA.1
       type="real"
       size=" 602"
       columns="4"
       index="1"
       angular_momentum="0"
       cutoff_radius_index=" 300"
       cutoff_radius="    2.9900000000E+00" >
    0.0000000000E+00   -5.5094694871E-02   -1.1010728425E-01   -1.6495580717E-01
   -2.1955859142E-01   -2.7383439741E-01   -3.2770256129E-01   -3.8108313708E-01
   -4.3389703781E-01   -4.8606617506E-01   -5.3751359709E-01   -5.8816362493E-01
   -6.3794198655E-01   -6.8677594862E-01   -7.3459444575E-01   -7.8132820698E-01
   -8.2690987927E-01   -8.7127414779E-01   -9.1435785270E-01   -9.5610010226E-01
   -9.9644238228E-01   -1.0353286610E+00   -1.0727054901E+00   -1.1085221010E+00
   -1.1427304965E+00   -1.1752855370E+00   -1.2061450227E+00   -1.2352697686E+00
   -1.2626236766E+00   -1.2881737991E+00   -1.3118903988E+00   -1.3337470012E+00
   -1.3537204423E+00   -1.3717909080E+00   -1.3879419684E+00   -1.4021606060E+00
   -1.4144372352E+00   -1.4247657168E+00   -1.4331433653E+00   -1.4395709482E+00
   -1.4440526789E+00   -1.4465962034E+00   -1.4472125784E+00   -1.4459162431E+00
   -1.4427249836E+00   -1.4376598905E+00   -1.4307453092E+00   -1.4220087830E+00
   -1.4114809895E+00   -1.3991956699E+00   -1.3851895542E+00   -1.3695022732E+00
   -1.3521762695E+00   -1.3332567077E+00   -1.3127913581E+00   -1.2908305021E+00
   -1.2674268102E+00   -1.2426352232E+00   -1.2165128305E+00   -1.1891187396E+00
   -1.1605139319E+00   -1.1307611568E+00   -1.0999247315E+00   -1.0680704589E+00
   -1.0352654429E+00   -1.0015779232E+00   -9.6707716054E-01   -9.3183327472E-01
   -8.9591702868E-01   -8.5939973407E-01   -8.2235307117E-01   -7.8484895289E-01
   -7.4695928714E-01   -7.0875588499E-01   -6.7031028722E-01   -6.3169360309E-01
   -5.9297635385E-01   -5.5422831859E-01   -5.1551839645E-01   -4.7691442313E-01
   -4.3848304692E-01   -4.0028959631E-01   -3.6239793577E-01   -3.2487033370E-01