<UPF version="2.0.1">
  <PP_INFO>

 This pseudopotential file has been produced using the code
 ONCVPSP  (Optimized Norm-Conservinng Vanderbilt PSeudopotential)
 scalar-relativistic version 2.1.1, 03/26/2014 by D. R. Hamann
 The code is available through a link at URL www.mat-simresearch.com.
 Documentation with the package provides a full discription of the
 input data below.


 While it is not required under the terms of the GNU GPL, it is
 suggested that you cite D. R. Hamann, Phys. Rev. B 88, 085117 (2013)
 in any publication using these pseudopotentials.


 Copyright 2015 The Regents of the University of California
 
 This work is licensed under the Creative Commons Attribution-ShareAlike 
 4.0 International License. To view a copy of this license, visit 
 http://creativecommons.org/licenses/by-sa/4.0/ or send a letter to 
 Creative Commons, PO Box 1866, Mountain View, CA 94042, USA.
 
 This pseudopotential is part of the Schlipf-Gygi norm-conserving 
 pseudopotential library. Its construction parameters were tuned to 
 reproduce materials of a training set with very high accuracy and 
 should be suitable as a general purpose pseudopotential to treat a 
 variety of different compounds. For details of the construction and 
 testing of the pseudopotential please refer to:
 
 [insert reference to paper here]
 
 We kindly ask that you include this reference in all publications 
 associated to this pseudopotential.


    <PP_INPUTFILE>
# ATOM AND REFERENCE CONFIGURATION
# atsym  z    nc    nv    iexc   psfile
  Tc 43.00     6     4     4      upf
#
#   n    l    f        energy (Ha)
    1    0    2.00
    2    0    2.00
    2    1    6.00
    3    0    2.00
    3    1    6.00
    3    2   10.00
    4    0    2.00
    4    1    6.00
    5    0    2.00
    4    2    5.00
#
# PSEUDOPOTENTIAL AND OPTIMIZATION
# lmax
    2
#
#   l,   rc,     ep,   ncon, nbas, qcut
    0   2.43158  -2.69665    5    8   5.83969
    1   2.58101  -1.66632    5    8   5.61871
    2   2.67505  -0.24483    5    8   5.54900
#
# LOCAL POTENTIAL
# lloc, lpopt,  rc(5),   dvloc0
    4    5   1.56390      0.00000
#
# VANDERBILT-KLEINMAN-BYLANDER PROJECTORs
# l, nproj, debl
    0    2   2.51131
    1    2   2.13740
    2    2   1.45895
#
# MODEL CORE CHARGE
# icmod, fcfact
    0   0.00000
#
# LOG DERIVATIVE ANALYSIS
# epsh1, epsh2, depsh
   -5.00    3.00    0.02
#
# OUTPUT GRID
# rlmax, drl
    6.00    0.01
#
# TEST CONFIGURATIONS
# ncnf
    0
# nvcnf
#   n    l    f
    </PP_INPUTFILE>
  </PP_INFO>
  <!--                               -->
  <!-- END OF HUMAN READABLE SECTION -->
  <!--                               -->
    <PP_HEADER
       generated="Generated using ONCVPSP code by D. R. Hamann"
       author="Martin Schlipf and Francois Gygi"
       date="150105"
       comment=""
       element="Tc"
       pseudo_type="NC"
       relativistic="scalar"
       is_ultrasoft="F"
       is_paw="F"
       is_coulomb="F"
       has_so="F"
       has_wfc="F"
       has_gipaw="F"
       core_correction="F"
       functional="PBE"
       z_valence="   15.00"
       total_psenergy="  -8.02115684786E+01"
       rho_cutoff="   6.01000000000E+00"
       l_max="2"
       l_local="-1"
       mesh_size="   602"
       number_of_wfc="0"
       number_of_proj="6"/>
 <PP_MESH>
   <PP_R type="real"  size=" 602" columns="8">
    0.0000    0.0100    0.0200    0.0300    0.0400    0.0500    0.0600    0.0700
    0.0800    0.0900    0.1000    0.1100    0.1200    0.1300    0.1400    0.1500
    0.1600    0.1700    0.1800    0.1900    0.2000    0.2100    0.2200    0.2300
    0.2400    0.2500    0.2600    0.2700    0.2800    0.2900    0.3000    0.3100
    0.3200    0.3300    0.3400    0.3500    0.3600    0.3700    0.3800    0.3900
    0.4000    0.4100    0.4200    0.4300    0.4400    0.4500    0.4600    0.4700
    0.4800    0.4900    0.5000    0.5100    0.5200    0.5300    0.5400    0.5500
    0.5600    0.5700    0.5800    0.5900    0.6000    0.6100    0.6200    0.6300
    0.6400    0.6500    0.6600    0.6700    0.6800    0.6900    0.7000    0.7100
    0.7200    0.7300    0.7400    0.7500    0.7600    0.7700    0.7800    0.7900
    0.8000    0.8100    0.8200    0.8300    0.8400    0.8500    0.8600    0.8700
    0.8800    0.8900    0.9000    0.9100    0.9200    0.9300    0.9400    0.9500
    0.9600    0.9700    0.9800    0.9900    1.0000    1.0100    1.0200    1.0300
    1.0400    1.0500    1.0600    1.0700    1.0800    1.0900    1.1000    1.1100
    1.1200    1.1300    1.1400    1.1500    1.1600    1.1700    1.1800    1.1900
    1.2000    1.2100    1.2200    1.2300    1.2400    1.2500    1.2600    1.2700
    1.2800    1.2900    1.3000    1.3100    1.3200    1.3300    1.3400    1.3500
    1.3600    1.3700    1.3800    1.3900    1.4000    1.4100    1.4200    1.4300
    1.4400    1.4500    1.4600    1.4700    1.4800    1.4900    1.5000    1.5100
    1.5200    1.5300    1.5400    1.5500    1.5600    1.5700    1.5800    1.5900
    1.6000    1.6100    1.6200    1.6300    1.6400    1.6500    1.6600    1.6700
    1.6800    1.6900    1.7000    1.7100    1.7200    1.7300    1.7400    1.7500
    1.7600    1.7700    1.7800    1.7900    1.8000    1.8100    1.8200    1.8300
    1.8400    1.8500    1.8600    1.8700    1.8800    1.8900    1.9000    1.9100
    1.9200    1.9300    1.9400    1.9500    1.9600    1.9700    1.9800    1.9900
    2.0000    2.0100    2.0200    2.0300    2.0400    2.0500    2.0600    2.0700
    2.0800    2.0900    2.1000    2.1100    2.1200    2.1300    2.1400    2.1500
    2.1600    2.1700    2.1800    2.1900    2.2000    2.2100    2.2200    2.2300
    2.2400    2.2500    2.2600    2.2700    2.2800    2.2900    2.3000    2.3100
    2.3200    2.3300    2.3400    2.3500    2.3600    2.3700    2.3800    2.3900
    2.4000    2.4100    2.4200    2.4300    2.4400    2.4500    2.4600    2.4700
    2.4800    2.4900    2.5000    2.5100    2.5200    2.5300    2.5400    2.5500
    2.5600    2.5700    2.5800    2.5900    2.6000    2.6100    2.6200    2.6300
    2.6400    2.6500    2.6600    2.6700    2.6800    2.6900    2.7000    2.7100
    2.7200    2.7300    2.7400    2.7500    2.7600    2.7700    2.7800    2.7900
    2.8000    2.8100    2.8200    2.8300    2.8400    2.8500    2.8600    2.8700
    2.8800    2.8900    2.9000    2.9100    2.9200    2.9300    2.9400    2.9500
    2.9600    2.9700    2.9800    2.9900    3.0000    3.0100    3.0200    3.0300
    3.0400    3.0500    3.0600    3.0700    3.0800    3.0900    3.1000    3.1100
    3.1200    3.1300    3.1400    3.1500    3.1600    3.1700    3.1800    3.1900
    3.2000    3.2100    3.2200    3.2300    3.2400    3.2500    3.2600    3.2700
    3.2800    3.2900    3.3000    3.3100    3.3200    3.3300    3.3400    3.3500
    3.3600    3.3700    3.3800    3.3900    3.4000    3.4100    3.4200    3.4300
    3.4400    3.4500    3.4600    3.4700    3.4800    3.4900    3.5000    3.5100
    3.5200    3.5300    3.5400    3.5500    3.5600    3.5700    3.5800    3.5900
    3.6000    3.6100    3.6200    3.6300    3.6400    3.6500    3.6600    3.6700
    3.6800    3.6900    3.7000    3.7100    3.7200    3.7300    3.7400    3.7500
    3.7600    3.7700    3.7800    3.7900    3.8000    3.8100    3.8200    3.8300
    3.8400    3.8500    3.8600    3.8700    3.8800    3.8900    3.9000    3.9100
    3.9200    3.9300    3.9400    3.9500    3.9600    3.9700    3.9800    3.9900
    4.0000    4.0100    4.0200    4.0300    4.0400    4.0500    4.0600    4.0700
    4.0800    4.0900    4.1000    4.1100    4.1200    4.1300    4.1400    4.1500
    4.1600    4.1700    4.1800    4.1900    4.2000    4.2100    4.2200    4.2300
    4.2400    4.2500    4.2600    4.2700    4.2800    4.2900    4.3000    4.3100
    4.3200    4.3300    4.3400    4.3500    4.3600    4.3700    4.3800    4.3900
    4.4000    4.4100    4.4200    4.4300    4.4400    4.4500    4.4600    4.4700
    4.4800    4.4900    4.5000    4.5100    4.5200    4.5300    4.5400    4.5500
    4.5600    4.5700    4.5800    4.5900    4.6000    4.6100    4.6200    4.6300
    4.6400    4.6500    4.6600    4.6700    4.6800    4.6900    4.7000    4.7100
    4.7200    4.7300    4.7400    4.7500    4.7600    4.7700    4.7800    4.7900
    4.8000    4.8100    4.8200    4.8300    4.8400    4.8500    4.8600    4.8700
    4.8800    4.8900    4.9000    4.9100    4.9200    4.9300    4.9400    4.9500
    4.9600    4.9700    4.9800    4.9900    5.0000    5.0100    5.0200    5.0300
    5.0400    5.0500    5.0600    5.0700    5.0800    5.0900    5.1000    5.1100
    5.1200    5.1300    5.1400    5.1500    5.1600    5.1700    5.1800    5.1900
    5.2000    5.2100    5.2200    5.2300    5.2400    5.2500    5.2600    5.2700
    5.2800    5.2900    5.3000    5.3100    5.3200    5.3300    5.3400    5.3500
    5.3600    5.3700    5.3800    5.3900    5.4000    5.4100    5.4200    5.4300
    5.4400    5.4500    5.4600    5.4700    5.4800    5.4900    5.5000    5.5100
    5.5200    5.5300    5.5400    5.5500    5.5600    5.5700    5.5800    5.5900
    5.6000    5.6100    5.6200    5.6300    5.6400    5.6500    5.6600    5.6700
    5.6800    5.6900    5.7000    5.7100    5.7200    5.7300    5.7400    5.7500
    5.7600    5.7700    5.7800    5.7900    5.8000    5.8100    5.8200    5.8300
    5.8400    5.8500    5.8600    5.8700    5.8800    5.8900    5.9000    5.9100
    5.9200    5.9300    5.9400    5.9500    5.9600    5.9700    5.9800    5.9900
    6.0000    6.0100
   </PP_R>
   <PP_RAB type="real"  size=" 602" columns="8">
    0.0100    0.0100    0.0100    0.0100    0.0100    0.0100    0.0100    0.0100
    0.0100    0.0100    0.0100    0.0100    0.0100    0.0100    0.0100    0.0100
    0.0100    0.0100    0.0100    0.0100    0.0100    0.0100    0.0100    0.0100
    0.0100    0.0100    0.0100    0.0100    0.0100    0.0100    0.0100    0.0100
    0.0100    0.0100    0.0100    0.0100    0.0100    0.0100    0.0100    0.0100
    0.0100    0.0100    0.0100    0.0100    0.0100    0.0100    0.0100    0.0100
    0.0100    0.0100    0.0100    0.0100    0.0100    0.0100    0.0100    0.0100
    0.0100    0.0100    0.0100    0.0100    0.0100    0.0100    0.0100    0.0100
    0.0100    0.0100    0.0100    0.0100    0.0100    0.0100    0.0100    0.0100
    0.0100    0.0100    0.0100    0.0100    0.0100    0.0100    0.0100    0.0100
    0.0100    0.0100    0.0100    0.0100    0.0100    0.0100    0.0100    0.0100
    0.0100    0.0100    0.0100    0.0100    0.0100    0.0100    0.0100    0.0100
    0.0100    0.0100    0.0100    0.0100    0.0100    0.0100    0.0100    0.0100
    0.0100    0.0100    0.0100    0.0100    0.0100    0.0100    0.0100    0.0100
    0.0100    0.0100    0.0100    0.0100    0.0100    0.0100    0.0100    0.0100
    0.0100    0.0100    0.0100    0.0100    0.0100    0.0100    0.0100    0.0100
    0.0100    0.0100    0.0100    0.0100    0.0100    0.0100    0.0100    0.0100
    0.0100    0.0100    0.0100    0.0100    0.0100    0.0100    0.0100    0.0100
    0.0100    0.0100    0.0100    0.0100    0.0100    0.0100    0.0100    0.0100
    0.0100    0.0100    0.0100    0.0100    0.0100    0.0100    0.0100    0.0100
    0.0100    0.0100    0.0100    0.0100    0.0100    0.0100    0.0100    0.0100
    0.0100    0.0100    0.0100    0.0100    0.0100    0.0100    0.0100    0.0100
    0.0100    0.0100    0.0100    0.0100    0.0100    0.0100    0.0100    0.0100
    0.0100    0.0100    0.0100    0.0100    0.0100    0.0100    0.0100    0.0100
    0.0100    0.0100    0.0100    0.0100    0.0100    0.0100    0.0100    0.0100
    0.0100    0.0100    0.0100    0.0100    0.0100    0.0100    0.0100    0.0100
    0.0100    0.0100    0.0100    0.0100    0.0100    0.0100    0.0100    0.0100
    0.0100    0.0100    0.0100    0.0100    0.0100    0.0100    0.0100    0.0100
    0.0100    0.0100    0.0100    0.0100    0.0100    0.0100    0.0100    0.0100
    0.0100    0.0100    0.0100    0.0100    0.0100    0.0100    0.0100    0.0100
    0.0100    0.0100    0.0100    0.0100    0.0100    0.0100    0.0100    0.0100
    0.0100    0.0100    0.0100    0.0100    0.0100    0.0100    0.0100    0.0100
    0.0100    0.0100    0.0100    0.0100    0.0100    0.0100    0.0100    0.0100
    0.0100    0.0100    0.0100    0.0100    0.0100    0.0100    0.0100    0.0100
    0.0100    0.0100    0.0100    0.0100    0.0100    0.0100    0.0100    0.0100
    0.0100    0.0100    0.0100    0.0100    0.0100    0.0100    0.0100    0.0100
    0.0100    0.0100    0.0100    0.0100    0.0100    0.0100    0.0100    0.0100
    0.0100    0.0100    0.0100    0.0100    0.0100    0.0100    0.0100    0.0100
    0.0100    0.0100    0.0100    0.0100    0.0100    0.0100    0.0100    0.0100
    0.0100    0.0100    0.0100    0.0100    0.0100    0.0100    0.0100    0.0100
    0.0100    0.0100    0.0100    0.0100    0.0100    0.0100    0.0100    0.0100
    0.0100    0.0100    0.0100    0.0100    0.0100    0.0100    0.0100    0.0100
    0.0100    0.0100    0.0100    0.0100    0.0100    0.0100    0.0100    0.0100
    0.0100    0.0100    0.0100    0.0100    0.0100    0.0100    0.0100    0.0100
    0.0100    0.0100    0.0100    0.0100    0.0100    0.0100    0.0100    0.0100
    0.0100    0.0100    0.0100    0.0100    0.0100    0.0100    0.0100    0.0100
    0.0100    0.0100    0.0100    0.0100    0.0100    0.0100    0.0100    0.0100
    0.0100    0.0100    0.0100    0.0100    0.0100    0.0100    0.0100    0.0100
    0.0100    0.0100    0.0100    0.0100    0.0100    0.0100    0.0100    0.0100
    0.0100    0.0100    0.0100    0.0100    0.0100    0.0100    0.0100    0.0100
    0.0100    0.0100    0.0100    0.0100    0.0100    0.0100    0.0100    0.0100
    0.0100    0.0100    0.0100    0.0100    0.0100    0.0100    0.0100    0.0100
    0.0100    0.0100    0.0100    0.0100    0.0100    0.0100    0.0100    0.0100
    0.0100    0.0100    0.0100    0.0100    0.0100    0.0100    0.0100    0.0100
    0.0100    0.0100    0.0100    0.0100    0.0100    0.0100    0.0100    0.0100
    0.0100    0.0100    0.0100    0.0100    0.0100    0.0100    0.0100    0.0100
    0.0100    0.0100    0.0100    0.0100    0.0100    0.0100    0.0100    0.0100
    0.0100    0.0100    0.0100    0.0100    0.0100    0.0100    0.0100    0.0100
    0.0100    0.0100    0.0100    0.0100    0.0100    0.0100    0.0100    0.0100
    0.0100    0.0100    0.0100    0.0100    0.0100    0.0100    0.0100    0.0100
    0.0100    0.0100    0.0100    0.0100    0.0100    0.0100    0.0100    0.0100
    0.0100    0.0100    0.0100    0.0100    0.0100    0.0100    0.0100    0.0100
    0.0100    0.0100    0.0100    0.0100    0.0100    0.0100    0.0100    0.0100
    0.0100    0.0100    0.0100    0.0100    0.0100    0.0100    0.0100    0.0100
    0.0100    0.0100    0.0100    0.0100    0.0100    0.0100    0.0100    0.0100
    0.0100    0.0100    0.0100    0.0100    0.0100    0.0100    0.0100    0.0100
    0.0100    0.0100    0.0100    0.0100    0.0100    0.0100    0.0100    0.0100
    0.0100    0.0100    0.0100    0.0100    0.0100    0.0100    0.0100    0.0100
    0.0100    0.0100    0.0100    0.0100    0.0100    0.0100    0.0100    0.0100
    0.0100    0.0100    0.0100    0.0100    0.0100    0.0100    0.0100    0.0100
    0.0100    0.0100    0.0100    0.0100    0.0100    0.0100    0.0100    0.0100
    0.0100    0.0100    0.0100    0.0100    0.0100    0.0100    0.0100    0.0100
    0.0100    0.0100    0.0100    0.0100    0.0100    0.0100    0.0100    0.0100
    0.0100    0.0100    0.0100    0.0100    0.0100    0.0100    0.0100    0.0100
    0.0100    0.0100    0.0100    0.0100    0.0100    0.0100    0.0100    0.0100
    0.0100    0.0100
   </PP_RAB>
 </PP_MESH>
  <PP_LOCAL type="real"  size=" 602" columns="4">
   -4.1830307224E+01   -4.1829032077E+01   -4.1825298899E+01   -4.1819002370E+01
   -4.1810037173E+01   -4.1798268049E+01   -4.1783540144E+01   -4.1765690051E+01
   -4.1744556429E+01   -4.1719989282E+01   -4.1691857265E+01   -4.1660052738E+01
   -4.1624494552E+01   -4.1585128800E+01   -4.1541927901E+01   -4.1494888453E+01
   -4.1444028282E+01   -4.1389383077E+01   -4.1331002916E+01   -4.1268948923E+01
   -4.1203290203E+01   -4.1134101157E+01   -4.1061459197E+01   -4.0985442885E+01
   -4.0906130447E+01   -4.0823598640E+01   -4.0737921913E+01   -4.0649171818E+01
   -4.0557416636E+01   -4.0462721150E+01   -4.0365146555E+01   -4.0264750465E+01
   -4.0161586983E+01   -4.0055706841E+01   -3.9947157541E+01   -3.9835983567E+01
   -3.9722226567E+01   -3.9605925580E+01   -3.9487117238E+01   -3.9365835986E+01
   -3.9242114293E+01   -3.9115982867E+01   -3.8987470854E+01   -3.8856606040E+01
   -3.8723415051E+01   -3.8587923542E+01   -3.8450156383E+01   -3.8310137846E+01
   -3.8167891776E+01   -3.8023441769E+01   -3.7876811339E+01   -3.7728024079E+01
   -3.7577103819E+01   -3.7424074783E+01   -3.7268961730E+01   -3.7111790088E+01
   -3.6952586107E+01   -3.6791376949E+01   -3.6628190846E+01   -3.6463057162E+01
   -3.6296006533E+01   -3.6127070927E+01   -3.5956283709E+01   -3.5783679766E+01
   -3.5609295488E+01   -3.5433168840E+01   -3.5255339433E+01   -3.5075848488E+01
   -3.4894738838E+01   -3.4712054993E+01   -3.4527843081E+01   -3.4342150820E+01
   -3.4155027495E+01   -3.3966523898E+01   -3.3776692331E+01   -3.3585586502E+01
   -3.3393261469E+01   -3.3199773571E+01   -3.3005180357E+01   -3.2809540502E+01
   -3.2612913730E+01   -3.2415360727E+01   -3.2216943051E+01   -3.2017723052E+01
   -3.1817763774E+01   -3.1617128876E+01   -3.1415882538E+01   -3.1214089381E+01
   -3.1011814374E+01   -3.0809122762E+01   -3.0606079973E+01   -3.0402751548E+01
   -3.0199203063E+01   -2.9995500051E+01   -2.9791707934E+01   -2.9587891955E+01
   -2.9384117106E+01   -2.9180448076E+01   -2.8976949186E+01   -2.8773684301E+01
   -2.8570716802E+01   -2.8368109523E+01   -2.8165924694E+01   -2.7964223894E+01
   -2.7763068051E+01   -2.7562517229E+01   -2.7362630729E+01   -2.7163467000E+01
   -2.6965083607E+01   -2.6767537239E+01   -2.6570883416E+01   -2.6375176696E+01
   -2.6180470562E+01   -2.5986817541E+01   -2.5794268676E+01   -2.5602873908E+01
   -2.5412681980E+01   -2.5223740482E+01   -2.5036095263E+01   -2.4849790969E+01
   -2.4664871068E+01   -2.4481377221E+01   -2.4299349528E+01   -2.4118826845E+01
   -2.3939846346E+01   -2.3762443173E+01   -2.3586651238E+01   -2.3412502761E+01
   -2.3240027578E+01   -2.3069254368E+01   -2.2900209872E+01   -2.2732918314E+01
   -2.2567402905E+01   -2.2403684313E+01   -2.2241780901E+01   -2.2081710232E+01
   -2.1923486233E+01   -2.1767121516E+01   -2.1612627053E+01   -2.1460010123E+01
   -2.1309277589E+01   -2.1160432675E+01   -2.1013476696E+01   -2.0868409660E+01
   -2.0725227194E+01   -2.0583925101E+01   -2.0444494498E+01   -2.0306925544E+01
   -2.0171205824E+01   -2.0037319407E+01   -1.9905250292E+01   -1.9774976721E+01
   -1.9646478171E+01   -1.9519728156E+01   -1.9394700522E+01   -1.9271364741E+01
   -1.9149688857E+01   -1.9029637731E+01   -1.8911175886E+01   -1.8794266583E+01
   -1.8678875151E+01   -1.8564966535E+01   -1.8452507980E+01   -1.8341465932E+01
   -1.8231809543E+01   -1.8123506780E+01   -1.8016528669E+01   -1.7910844755E+01
   -1.7806427880E+01   -1.7703249242E+01   -1.7601283417E+01   -1.7500503260E+01
   -1.7400885018E+01   -1.7302403245E+01   -1.7205035705E+01   -1.7108758676E+01
   -1.7013551286E+01   -1.6919391533E+01   -1.6826259741E+01   -1.6734135598E+01
   -1.6643000456E+01   -1.6552835625E+01   -1.6463623331E+01   -1.6375346406E+01
   -1.6287987820E+01   -1.6201531789E+01   -1.6115961931E+01   -1.6031263656E+01
   -1.5947421243E+01   -1.5864420919E+01   -1.5782248002E+01   -1.5700889004E+01
   -1.5620330325E+01   -1.5540558708E+01   -1.5461561552E+01   -1.5383325795E+01
   -1.5305839683E+01   -1.5229090616E+01   -1.5153067264E+01   -1.5077757908E+01
   -1.5003151290E+01   -1.4929236770E+01   -1.4856003069E+01   -1.4783440514E+01
   -1.4711538461E+01   -1.4640287453E+01   -1.4569678090E+01   -1.4499700761E+01
   -1.4430347361E+01   -1.4361608654E+01   -1.4293477013E+01   -1.4225944571E+01
   -1.4159003372E+01   -1.4092646973E+01   -1.4026867793E+01   -1.3961659738E+01
   -1.3897016635E+01   -1.3832931945E+01   -1.3769400662E+01   -1.3706416866E+01
   -1.3643975433E+01   -1.3582071618E+01   -1.3520700018E+01   -1.3459856427E+01
   -1.3399536179E+01   -1.3339734675E+01   -1.3280447780E+01   -1.3221671092E+01
   -1.3163400378E+01   -1.3105631454E+01   -1.3048360131E+01   -1.2991582118E+01
   -1.2935293182E+01   -1.2879489142E+01   -1.2824165467E+01   -1.2769317860E+01
   -1.2714941899E+01   -1.2661032825E+01   -1.2607586204E+01   -1.2554597265E+01
   -1.2502061052E+01   -1.2449972939E+01   -1.2398327820E+01   -1.2347120570E+01
   -1.2296346352E+01   -1.2245999798E+01   -1.2196075631E+01   -1.2146568732E+01
   -1.2097473673E+01   -1.2048785111E+01   -1.2000497691E+01   -1.1952606122E+01
   -1.1905105092E+01   -1.1857989156E+01   -1.1811253227E+01   -1.1764892091E+01
   -1.1718900238E+01   -1.1673272945E+01   -1.1628005233E+01   -1.1583091706E+01
   -1.1538527997E+01   -1.1494309469E+01   -1.1450430987E+01   -1.1406888489E+01
   -1.1363677780E+01   -1.1320794119E+01   -1.1278233660E+01   -1.1235992710E+01
   -1.1194067001E+01   -1.1152452823E+01   -1.1111147056E+01   -1.1070146108E+01
   -1.1029446402E+01   -1.0989044962E+01   -1.0948938534E+01   -1.0909123702E+01
   -1.0869597509E+01   -1.0830356819E+01   -1.0791398289E+01   -1.0752719038E+01
   -1.0714316167E+01   -1.0676186593E+01   -1.0638327363E+01   -1.0600735785E+01
   -1.0563409008E+01   -1.0526343997E+01   -1.0489538266E+01   -1.0452989112E+01
   -1.0416693677E+01   -1.0380649404E+01   -1.0344853802E+01   -1.0309304246E+01
   -1.0273998044E+01   -1.0238932922E+01   -1.0204106421E+01   -1.0169515924E+01
   -1.0135159144E+01   -1.0101033807E+01   -1.0067137527E+01   -1.0033467843E+01
   -1.0000022698E+01   -9.9667998583E+00   -9.9337969577E+00   -9.9010118679E+00
   -9.8684425464E+00   -9.8360868632E+00   -9.8039424872E+00   -9.7720075833E+00
   -9.7402801233E+00   -9.7087580071E+00   -9.6774391641E+00   -9.6463217971E+00
   -9.6154039697E+00   -9.5846836191E+00   -9.5541589131E+00   -9.5238280834E+00
   -9.4936892841E+00   -9.4637405000E+00   -9.4339801029E+00   -9.4044063584E+00
   -9.3750174902E+00   -9.3458115884E+00   -9.3167871468E+00   -9.2879424874E+00
   -9.2592758854E+00   -9.2307855863E+00   -9.2024701315E+00   -9.1743279214E+00
   -9.1463572889E+00   -9.1185566086E+00   -9.0909244737E+00   -9.0634593590E+00
   -9.0361596613E+00   -9.0090238585E+00   -8.9820506005E+00   -8.9552384331E+00
   -8.9285858224E+00   -8.9020913252E+00   -8.8757536532E+00   -8.8495714200E+00
   -8.8235431658E+00   -8.7976675035E+00   -8.7719432116E+00   -8.7463689682E+00
   -8.7209433925E+00   -8.6956651322E+00   -8.6705330369E+00   -8.6455458465E+00
   -8.6207022636E+00   -8.5960009509E+00   -8.5714408333E+00   -8.5470207092E+00
   -8.5227393694E+00   -8.4985954738E+00   -8.4745880250E+00   -8.4507158776E+00
   -8.4269778860E+00   -8.4033727772E+00   -8.3798995481E+00   -8.3565571350E+00
   -8.3333444455E+00   -8.3102603028E+00   -8.2873036570E+00   -8.2644735366E+00
   -8.2417689004E+00   -8.2191886728E+00   -8.1967317423E+00   -8.1743972309E+00
   -8.1521841459E+00   -8.1300914945E+00   -8.1081181617E+00   -8.0862632928E+00
   -8.0645259640E+00   -8.0429052290E+00   -8.0214000806E+00   -8.0000095673E+00
   -7.9787328700E+00   -7.9575690864E+00   -7.9365173141E+00   -7.9155765230E+00
   -7.8947459678E+00   -7.8740247974E+00   -7.8534121515E+00   -7.8329071148E+00
   -7.8125088151E+00   -7.7922165143E+00   -7.7720293921E+00   -7.7519466284E+00
   -7.7319672964E+00   -7.7120906863E+00   -7.6923160424E+00   -7.6726425825E+00
   -7.6530695035E+00   -7.6335959421E+00   -7.6142212605E+00   -7.5949447129E+00
   -7.5757655539E+00   -7.5566829790E+00   -7.5376962476E+00   -7.5188047180E+00
   -7.5000076794E+00   -7.4813044210E+00   -7.4626941451E+00   -7.4441762125E+00
   -7.4257499832E+00   -7.4074147796E+00   -7.3891699239E+00   -7.3710146326E+00
   -7.3529483469E+00   -7.3349704348E+00   -7.3170802503E+00   -7.2992771459E+00
   -7.2815603624E+00   -7.2639293980E+00   -7.2463836364E+00   -7.2289224619E+00
   -7.2115452490E+00   -7.1942512882E+00   -7.1770400967E+00   -7.1599110872E+00
   -7.1428636723E+00   -7.1258972546E+00   -7.1090111577E+00   -7.0922049226E+00
   -7.0754779895E+00   -7.0588297984E+00   -7.0422597852E+00   -7.0257672905E+00
   -7.0093518845E+00   -6.9930130333E+00   -6.9767502030E+00   -6.9605628598E+00
   -6.9444503715E+00   -6.9284123168E+00   -6.9124481951E+00   -6.8965574972E+00
   -6.8807397142E+00   -6.8649942582E+00   -6.8493206900E+00   -6.8337185508E+00
   -6.8181873554E+00   -6.8027266184E+00   -6.7873358010E+00   -6.7720144328E+00
   -6.7567621012E+00   -6.7415783433E+00   -6.7264626967E+00   -6.7114146762E+00
   -6.6964337680E+00   -6.6815196089E+00   -6.6666717577E+00   -6.6518897734E+00
   -6.6371732148E+00   -6.6225215574E+00   -6.6079344465E+00   -6.5934114759E+00
   -6.5789522249E+00   -6.5645562730E+00   -6.5502231577E+00   -6.5359524540E+00
   -6.5217438154E+00   -6.5075968409E+00   -6.4935111297E+00   -6.4794862806E+00
   -6.4655218058E+00   -6.4516174030E+00   -6.4377726954E+00   -6.4239873009E+00
   -6.4102608370E+00   -6.3965928860E+00   -6.3829830513E+00   -6.3694310248E+00
   -6.3559364421E+00   -6.3424989386E+00   -6.3291181498E+00   -6.3157936436E+00
   -6.3025251143E+00   -6.2893122360E+00   -6.2761546611E+00   -6.2630520422E+00
   -6.2500040256E+00   -6.2370101910E+00   -6.2240702869E+00   -6.2111839821E+00
   -6.1983509453E+00   -6.1855708451E+00   -6.1728433235E+00   -6.1601680219E+00
   -6.1475446831E+00   -6.1349729912E+00   -6.1224526302E+00   -6.1099832844E+00
   -6.0975645975E+00   -6.0851962575E+00   -6.0728780067E+00   -6.0606095439E+00
   -6.0483905679E+00   -6.0362207776E+00   -6.0240998242E+00   -6.0120274280E+00
   -6.0000033361E+00   -5.9880272614E+00   -5.9760989166E+00   -5.9642180147E+00
   -5.9523842196E+00   -5.9405972704E+00   -5.9288569241E+00   -5.9171629070E+00
   -5.9055149453E+00   -5.8939127654E+00   -5.8823560486E+00   -5.8708445400E+00
   -5.8593780118E+00   -5.8479562029E+00   -5.8365788524E+00   -5.8252456993E+00
   -5.8139564474E+00   -5.8027108355E+00   -5.7915086556E+00   -5.7803496588E+00
   -5.7692335964E+00   -5.7581602196E+00   -5.7471292589E+00   -5.7361404356E+00
   -5.7251935660E+00   -5.7142884128E+00   -5.7034247388E+00   -5.6926023068E+00
   -5.6818208784E+00   -5.6710801473E+00   -5.6603799575E+00   -5.6497200828E+00
   -5.6391002970E+00   -5.6285203740E+00   -5.6179800876E+00   -5.6074791636E+00
   -5.5970174079E+00   -5.5865946278E+00   -5.5762106076E+00   -5.5658651316E+00
   -5.5555579843E+00   -5.5452889313E+00   -5.5350577279E+00   -5.5248642187E+00
   -5.5147081982E+00   -5.5045894607E+00   -5.4945078007E+00   -5.4844630126E+00
   -5.4744548385E+00   -5.4644831173E+00   -5.4545476681E+00   -5.4446482949E+00
   -5.4347848015E+00   -5.4249569921E+00   -5.4151646566E+00   -5.4054075632E+00
   -5.3956855765E+00   -5.3859985097E+00   -5.3763461760E+00   -5.3667283883E+00
   -5.3571449600E+00   -5.3475956675E+00   -5.3380803373E+00   -5.3285988192E+00
   -5.3191509350E+00   -5.3097365065E+00   -5.3003553556E+00   -5.2910073041E+00
   -5.2816921213E+00   -5.2724096783E+00   -5.2631598154E+00   -5.2539423625E+00
   -5.2447571499E+00   -5.2356040077E+00   -5.2264827638E+00   -5.2173931924E+00
   -5.2083351897E+00   -5.1993085938E+00   -5.1903132429E+00   -5.1813489749E+00
   -5.1724156279E+00   -5.1635130310E+00   -5.1546409815E+00   -5.1457993756E+00
   -5.1369880589E+00   -5.1282068771E+00   -5.1194556756E+00   -5.1107343001E+00
   -5.1020425858E+00   -5.0933803419E+00   -5.0847474692E+00   -5.0761438203E+00
   -5.0675692480E+00   -5.0590236051E+00   -5.0505067445E+00   -5.0420185118E+00
   -5.0335587179E+00   -5.0251272722E+00   -5.0167240342E+00   -5.0083488637E+00
   -5.0000016202E+00   -4.9916821634E+00
  </PP_LOCAL>
 <PP_NONLOCAL>
   <PP_BETA.1
       type="real"
       size=" 602"
       columns="4"
       index="1"
       angular_momentum="0"
       cutoff_radius_index=" 272"
       cutoff_radius="    2.7100000000E+00" >
    0.0000000000E+00   -4.9651424559E-02   -9.9241839335E-02   -1.4871030111E-01
   -1.9799599986E-01   -2.4703832537E-01   -2.9577693408E-01   -3.4415181593E-01
   -3.9210336144E-01   -4.3957242896E-01   -4.8650041211E-01   -5.3282930743E-01
   -5.7850178230E-01   -6.2346124305E-01   -6.6765190332E-01   -7.1101885265E-01
   -7.5350812530E-01   -7.9506676918E-01   -8.3564291504E-01   -8.7518584571E-01
   -9.1364606543E-01   -9.5097536918E-01   -9.8712691195E-01   -1.0220552779E+00
   -1.0557165495E+00   -1.0880683755E+00   -1.1190700400E+00   -1.1486825296E+00
   -1.1768686005E+00   -1.2035928446E+00   -1.2288217551E+00   -1.2525237905E+00
   -1.2746694375E+00   -1.2952312720E+00   -1.3141840208E+00   -1.3315046171E+00
   -1.3471722593E+00   -1.3611684626E+00   -1.3734771121E+00   -1.3840845118E+00
   -1.3929794298E+00   -1.4001531420E+00   -1.4055994722E+00   -1.4093148283E+00
   -1.4112982350E+00   -1.4115513630E+00   -1.4100785535E+00   -1.4068868388E+00
   -1.4019859578E+00   -1.3953883658E+00   -1.3871092453E+00   -1.3771665025E+00
   -1.3655807624E+00   -1.3523753642E+00   -1.3375763410E+00   -1.3212123997E+00
   -1.3033148960E+00   -1.2839177981E+00   -1.2630576493E+00   -1.2407735222E+00
   -1.2171069659E+00   -1.1921019479E+00   -1.1658047932E+00   -1.1382641038E+00
   -1.1095306929E+00   -1.0796574978E+00   -1.0486994791E+00   -1.0167135387E+00
   -9.8375842260E-01   -9.4989458917E-01   -9.1518411027E-01   -8.7969055444E-01
   -8.4347885960E-01   -8.0661521632E-01   -7.6916689656E-01   -7.3120214360E-01
   -6.9279002572E-01   -6.5400028637E-01   -6.1490319330E-01   -5.7556938470E-01
   -5.3606971239E-01   -4.9647508291E-01   -4.5685629664E-01   -4.1728388549E-01
   -3.7782794968E-01   -3.3855799408E-01   -2.9954276446E-01   -2.6085008435E-01
   -2.2254669286E-01   -1.8469808414E-01   -1.4736834885E-01   -1.1062001829E-01