<UPF version="2.0.1">
  <PP_INFO>

 This pseudopotential file has been produced using the code
 ONCVPSP  (Optimized Norm-Conservinng Vanderbilt PSeudopotential)
 scalar-relativistic version 2.1.1, 03/26/2014 by D. R. Hamann
 The code is available through a link at URL www.mat-simresearch.com.
 Documentation with the package provides a full discription of the
 input data below.


 While it is not required under the terms of the GNU GPL, it is
 suggested that you cite D. R. Hamann, Phys. Rev. B 88, 085117 (2013)
 in any publication using these pseudopotentials.


 Copyright 2015 The Regents of the University of California
 
 This work is licensed under the Creative Commons Attribution-ShareAlike 
 4.0 International License. To view a copy of this license, visit 
 http://creativecommons.org/licenses/by-sa/4.0/ or send a letter to 
 Creative Commons, PO Box 1866, Mountain View, CA 94042, USA.
 
 This pseudopotential is part of the Schlipf-Gygi norm-conserving 
 pseudopotential library. Its construction parameters were tuned to 
 reproduce materials of a training set with very high accuracy and 
 should be suitable as a general purpose pseudopotential to treat a 
 variety of different compounds. For details of the construction and 
 testing of the pseudopotential please refer to:
 
 [insert reference to paper here]
 
 We kindly ask that you include this reference in all publications 
 associated to this pseudopotential.


    <PP_INPUTFILE>
# ATOM AND REFERENCE CONFIGURATION
# atsym  z    nc    nv    iexc   psfile
  Te 52.00     8     3     4      upf
#
#   n    l    f        energy (Ha)
    1    0    2.00
    2    0    2.00
    2    1    6.00
    3    0    2.00
    3    1    6.00
    3    2   10.00
    4    0    2.00
    4    1    6.00
    4    2   10.00
    5    0    2.00
    5    1    4.00
#
# PSEUDOPOTENTIAL AND OPTIMIZATION
# lmax
    2
#
#   l,   rc,     ep,   ncon, nbas, qcut
    0   2.49231  -0.55523    5    8   3.09552
    1   3.12631  -0.21878    5    8   4.96519
    2   2.77477  -1.53072    5    8   7.44046
#
# LOCAL POTENTIAL
# lloc, lpopt,  rc(5),   dvloc0
    4    5   1.80604      0.00000
#
# VANDERBILT-KLEINMAN-BYLANDER PROJECTORs
# l, nproj, debl
    0    2   1.15608
    1    2   0.69602
    2    2   1.59126
#
# MODEL CORE CHARGE
# icmod, fcfact
    0   0.00000
#
# LOG DERIVATIVE ANALYSIS
# epsh1, epsh2, depsh
   -5.00    3.00    0.02
#
# OUTPUT GRID
# rlmax, drl
    6.00    0.01
#
# TEST CONFIGURATIONS
# ncnf
    0
# nvcnf
#   n    l    f
    </PP_INPUTFILE>
  </PP_INFO>
  <!--                               -->
  <!-- END OF HUMAN READABLE SECTION -->
  <!--                               -->
    <PP_HEADER
       generated="Generated using ONCVPSP code by D. R. Hamann"
       author="Martin Schlipf and Francois Gygi"
       date="150415"
       comment=""
       element="Te"
       pseudo_type="NC"
       relativistic="scalar"
       is_ultrasoft="F"
       is_paw="F"
       is_coulomb="F"
       has_so="F"
       has_wfc="F"
       has_gipaw="F"
       core_correction="F"
       functional="PBE"
       z_valence="   16.00"
       total_psenergy="  -8.72750374776E+01"
       rho_cutoff="   6.01000000000E+00"
       l_max="2"
       l_local="-1"
       mesh_size="   602"
       number_of_wfc="0"
       number_of_proj="6"/>
 <PP_MESH>
   <PP_R type="real"  size=" 602" columns="8">
    0.0000    0.0100    0.0200    0.0300    0.0400    0.0500    0.0600    0.0700
    0.0800    0.0900    0.1000    0.1100    0.1200    0.1300    0.1400    0.1500
    0.1600    0.1700    0.1800    0.1900    0.2000    0.2100    0.2200    0.2300
    0.2400    0.2500    0.2600    0.2700    0.2800    0.2900    0.3000    0.3100
    0.3200    0.3300    0.3400    0.3500    0.3600    0.3700    0.3800    0.3900
    0.4000    0.4100    0.4200    0.4300    0.4400    0.4500    0.4600    0.4700
    0.4800    0.4900    0.5000    0.5100    0.5200    0.5300    0.5400    0.5500
    0.5600    0.5700    0.5800    0.5900    0.6000    0.6100    0.6200    0.6300
    0.6400    0.6500    0.6600    0.6700    0.6800    0.6900    0.7000    0.7100
    0.7200    0.7300    0.7400    0.7500    0.7600    0.7700    0.7800    0.7900
    0.8000    0.8100    0.8200    0.8300    0.8400    0.8500    0.8600    0.8700
    0.8800    0.8900    0.9000    0.9100    0.9200    0.9300    0.9400    0.9500
    0.9600    0.9700    0.9800    0.9900    1.0000    1.0100    1.0200    1.0300
    1.0400    1.0500    1.0600    1.0700    1.0800    1.0900    1.1000    1.1100
    1.1200    1.1300    1.1400    1.1500    1.1600    1.1700    1.1800    1.1900
    1.2000    1.2100    1.2200    1.2300    1.2400    1.2500    1.2600    1.2700
    1.2800    1.2900    1.3000    1.3100    1.3200    1.3300    1.3400    1.3500
    1.3600    1.3700    1.3800    1.3900    1.4000    1.4100    1.4200    1.4300
    1.4400    1.4500    1.4600    1.4700    1.4800    1.4900    1.5000    1.5100
    1.5200    1.5300    1.5400    1.5500    1.5600    1.5700    1.5800    1.5900
    1.6000    1.6100    1.6200    1.6300    1.6400    1.6500    1.6600    1.6700
    1.6800    1.6900    1.7000    1.7100    1.7200    1.7300    1.7400    1.7500
    1.7600    1.7700    1.7800    1.7900    1.8000    1.8100    1.8200    1.8300
    1.8400    1.8500    1.8600    1.8700    1.8800    1.8900    1.9000    1.9100
    1.9200    1.9300    1.9400    1.9500    1.9600    1.9700    1.9800    1.9900
    2.0000    2.0100    2.0200    2.0300    2.0400    2.0500    2.0600    2.0700
    2.0800    2.0900    2.1000    2.1100    2.1200    2.1300    2.1400    2.1500
    2.1600    2.1700    2.1800    2.1900    2.2000    2.2100    2.2200    2.2300
    2.2400    2.2500    2.2600    2.2700    2.2800    2.2900    2.3000    2.3100
    2.3200    2.3300    2.3400    2.3500    2.3600    2.3700    2.3800    2.3900
    2.4000    2.4100    2.4200    2.4300    2.4400    2.4500    2.4600    2.4700
    2.4800    2.4900    2.5000    2.5100    2.5200    2.5300    2.5400    2.5500
    2.5600    2.5700    2.5800    2.5900    2.6000    2.6100    2.6200    2.6300
    2.6400    2.6500    2.6600    2.6700    2.6800    2.6900    2.7000    2.7100
    2.7200    2.7300    2.7400    2.7500    2.7600    2.7700    2.7800    2.7900
    2.8000    2.8100    2.8200    2.8300    2.8400    2.8500    2.8600    2.8700
    2.8800    2.8900    2.9000    2.9100    2.9200    2.9300    2.9400    2.9500
    2.9600    2.9700    2.9800    2.9900    3.0000    3.0100    3.0200    3.0300
    3.0400    3.0500    3.0600    3.0700    3.0800    3.0900    3.1000    3.1100
    3.1200    3.1300    3.1400    3.1500    3.1600    3.1700    3.1800    3.1900
    3.2000    3.2100    3.2200    3.2300    3.2400    3.2500    3.2600    3.2700
    3.2800    3.2900    3.3000    3.3100    3.3200    3.3300    3.3400    3.3500
    3.3600    3.3700    3.3800    3.3900    3.4000    3.4100    3.4200    3.4300
    3.4400    3.4500    3.4600    3.4700    3.4800    3.4900    3.5000    3.5100
    3.5200    3.5300    3.5400    3.5500    3.5600    3.5700    3.5800    3.5900
    3.6000    3.6100    3.6200    3.6300    3.6400    3.6500    3.6600    3.6700
    3.6800    3.6900    3.7000    3.7100    3.7200    3.7300    3.7400    3.7500
    3.7600    3.7700    3.7800    3.7900    3.8000    3.8100    3.8200    3.8300
    3.8400    3.8500    3.8600    3.8700    3.8800    3.8900    3.9000    3.9100
    3.9200    3.9300    3.9400    3.9500    3.9600    3.9700    3.9800    3.9900
    4.0000    4.0100    4.0200    4.0300    4.0400    4.0500    4.0600    4.0700
    4.0800    4.0900    4.1000    4.1100    4.1200    4.1300    4.1400    4.1500
    4.1600    4.1700    4.1800    4.1900    4.2000    4.2100    4.2200    4.2300
    4.2400    4.2500    4.2600    4.2700    4.2800    4.2900    4.3000    4.3100
    4.3200    4.3300    4.3400    4.3500    4.3600    4.3700    4.3800    4.3900
    4.4000    4.4100    4.4200    4.4300    4.4400    4.4500    4.4600    4.4700
    4.4800    4.4900    4.5000    4.5100    4.5200    4.5300    4.5400    4.5500
    4.5600    4.5700    4.5800    4.5900    4.6000    4.6100    4.6200    4.6300
    4.6400    4.6500    4.6600    4.6700    4.6800    4.6900    4.7000    4.7100
    4.7200    4.7300    4.7400    4.7500    4.7600    4.7700    4.7800    4.7900
    4.8000    4.8100    4.8200    4.8300    4.8400    4.8500    4.8600    4.8700
    4.8800    4.8900    4.9000    4.9100    4.9200    4.9300    4.9400    4.9500
    4.9600    4.9700    4.9800    4.9900    5.0000    5.0100    5.0200    5.0300
    5.0400    5.0500    5.0600    5.0700    5.0800    5.0900    5.1000    5.1100
    5.1200    5.1300    5.1400    5.1500    5.1600    5.1700    5.1800    5.1900
    5.2000    5.2100    5.2200    5.2300    5.2400    5.2500    5.2600    5.2700
    5.2800    5.2900    5.3000    5.3100    5.3200    5.3300    5.3400    5.3500
    5.3600    5.3700    5.3800    5.3900    5.4000    5.4100    5.4200    5.4300
    5.4400    5.4500    5.4600    5.4700    5.4800    5.4900    5.5000    5.5100
    5.5200    5.5300    5.5400    5.5500    5.5600    5.5700    5.5800    5.5900
    5.6000    5.6100    5.6200    5.6300    5.6400    5.6500    5.6600    5.6700
    5.6800    5.6900    5.7000    5.7100    5.7200    5.7300    5.7400    5.7500
    5.7600    5.7700    5.7800    5.7900    5.8000    5.8100    5.8200    5.8300
    5.8400    5.8500    5.8600    5.8700    5.8800    5.8900    5.9000    5.9100
    5.9200    5.9300    5.9400    5.9500    5.9600    5.9700    5.9800    5.9900
    6.0000    6.0100
   </PP_R>
   <PP_RAB type="real"  size=" 602" columns="8">
    0.0100    0.0100    0.0100    0.0100    0.0100    0.0100    0.0100    0.0100
    0.0100    0.0100    0.0100    0.0100    0.0100    0.0100    0.0100    0.0100
    0.0100    0.0100    0.0100    0.0100    0.0100    0.0100    0.0100    0.0100
    0.0100    0.0100    0.0100    0.0100    0.0100    0.0100    0.0100    0.0100
    0.0100    0.0100    0.0100    0.0100    0.0100    0.0100    0.0100    0.0100
    0.0100    0.0100    0.0100    0.0100    0.0100    0.0100    0.0100    0.0100
    0.0100    0.0100    0.0100    0.0100    0.0100    0.0100    0.0100    0.0100
    0.0100    0.0100    0.0100    0.0100    0.0100    0.0100    0.0100    0.0100
    0.0100    0.0100    0.0100    0.0100    0.0100    0.0100    0.0100    0.0100
    0.0100    0.0100    0.0100    0.0100    0.0100    0.0100    0.0100    0.0100
    0.0100    0.0100    0.0100    0.0100    0.0100    0.0100    0.0100    0.0100
    0.0100    0.0100    0.0100    0.0100    0.0100    0.0100    0.0100    0.0100
    0.0100    0.0100    0.0100    0.0100    0.0100    0.0100    0.0100    0.0100
    0.0100    0.0100    0.0100    0.0100    0.0100    0.0100    0.0100    0.0100
    0.0100    0.0100    0.0100    0.0100    0.0100    0.0100    0.0100    0.0100
    0.0100    0.0100    0.0100    0.0100    0.0100    0.0100    0.0100    0.0100
    0.0100    0.0100    0.0100    0.0100    0.0100    0.0100    0.0100    0.0100
    0.0100    0.0100    0.0100    0.0100    0.0100    0.0100    0.0100    0.0100
    0.0100    0.0100    0.0100    0.0100    0.0100    0.0100    0.0100    0.0100
    0.0100    0.0100    0.0100    0.0100    0.0100    0.0100    0.0100    0.0100
    0.0100    0.0100    0.0100    0.0100    0.0100    0.0100    0.0100    0.0100
    0.0100    0.0100    0.0100    0.0100    0.0100    0.0100    0.0100    0.0100
    0.0100    0.0100    0.0100    0.0100    0.0100    0.0100    0.0100    0.0100
    0.0100    0.0100    0.0100    0.0100    0.0100    0.0100    0.0100    0.0100
    0.0100    0.0100    0.0100    0.0100    0.0100    0.0100    0.0100    0.0100
    0.0100    0.0100    0.0100    0.0100    0.0100    0.0100    0.0100    0.0100
    0.0100    0.0100    0.0100    0.0100    0.0100    0.0100    0.0100    0.0100
    0.0100    0.0100    0.0100    0.0100    0.0100    0.0100    0.0100    0.0100
    0.0100    0.0100    0.0100    0.0100    0.0100    0.0100    0.0100    0.0100
    0.0100    0.0100    0.0100    0.0100    0.0100    0.0100    0.0100    0.0100
    0.0100    0.0100    0.0100    0.0100    0.0100    0.0100    0.0100    0.0100
    0.0100    0.0100    0.0100    0.0100    0.0100    0.0100    0.0100    0.0100
    0.0100    0.0100    0.0100    0.0100    0.0100    0.0100    0.0100    0.0100
    0.0100    0.0100    0.0100    0.0100    0.0100    0.0100    0.0100    0.0100
    0.0100    0.0100    0.0100    0.0100    0.0100    0.0100    0.0100    0.0100
    0.0100    0.0100    0.0100    0.0100    0.0100    0.0100    0.0100    0.0100
    0.0100    0.0100    0.0100    0.0100    0.0100    0.0100    0.0100    0.0100
    0.0100    0.0100    0.0100    0.0100    0.0100    0.0100    0.0100    0.0100
    0.0100    0.0100    0.0100    0.0100    0.0100    0.0100    0.0100    0.0100
    0.0100    0.0100    0.0100    0.0100    0.0100    0.0100    0.0100    0.0100
    0.0100    0.0100    0.0100    0.0100    0.0100    0.0100    0.0100    0.0100
    0.0100    0.0100    0.0100    0.0100    0.0100    0.0100    0.0100    0.0100
    0.0100    0.0100    0.0100    0.0100    0.0100    0.0100    0.0100    0.0100
    0.0100    0.0100    0.0100    0.0100    0.0100    0.0100    0.0100    0.0100
    0.0100    0.0100    0.0100    0.0100    0.0100    0.0100    0.0100    0.0100
    0.0100    0.0100    0.0100    0.0100    0.0100    0.0100    0.0100    0.0100
    0.0100    0.0100    0.0100    0.0100    0.0100    0.0100    0.0100    0.0100
    0.0100    0.0100    0.0100    0.0100    0.0100    0.0100    0.0100    0.0100
    0.0100    0.0100    0.0100    0.0100    0.0100    0.0100    0.0100    0.0100
    0.0100    0.0100    0.0100    0.0100    0.0100    0.0100    0.0100    0.0100
    0.0100    0.0100    0.0100    0.0100    0.0100    0.0100    0.0100    0.0100
    0.0100    0.0100    0.0100    0.0100    0.0100    0.0100    0.0100    0.0100
    0.0100    0.0100    0.0100    0.0100    0.0100    0.0100    0.0100    0.0100
    0.0100    0.0100    0.0100    0.0100    0.0100    0.0100    0.0100    0.0100
    0.0100    0.0100    0.0100    0.0100    0.0100    0.0100    0.0100    0.0100
    0.0100    0.0100    0.0100    0.0100    0.0100    0.0100    0.0100    0.0100
    0.0100    0.0100    0.0100    0.0100    0.0100    0.0100    0.0100    0.0100
    0.0100    0.0100    0.0100    0.0100    0.0100    0.0100    0.0100    0.0100
    0.0100    0.0100    0.0100    0.0100    0.0100    0.0100    0.0100    0.0100
    0.0100    0.0100    0.0100    0.0100    0.0100    0.0100    0.0100    0.0100
    0.0100    0.0100    0.0100    0.0100    0.0100    0.0100    0.0100    0.0100
    0.0100    0.0100    0.0100    0.0100    0.0100    0.0100    0.0100    0.0100
    0.0100    0.0100    0.0100    0.0100    0.0100    0.0100    0.0100    0.0100
    0.0100    0.0100    0.0100    0.0100    0.0100    0.0100    0.0100    0.0100
    0.0100    0.0100    0.0100    0.0100    0.0100    0.0100    0.0100    0.0100
    0.0100    0.0100    0.0100    0.0100    0.0100    0.0100    0.0100    0.0100
    0.0100    0.0100    0.0100    0.0100    0.0100    0.0100    0.0100    0.0100
    0.0100    0.0100    0.0100    0.0100    0.0100    0.0100    0.0100    0.0100
    0.0100    0.0100    0.0100    0.0100    0.0100    0.0100    0.0100    0.0100
    0.0100    0.0100    0.0100    0.0100    0.0100    0.0100    0.0100    0.0100
    0.0100    0.0100    0.0100    0.0100    0.0100    0.0100    0.0100    0.0100
    0.0100    0.0100    0.0100    0.0100    0.0100    0.0100    0.0100    0.0100
    0.0100    0.0100    0.0100    0.0100    0.0100    0.0100    0.0100    0.0100
    0.0100    0.0100    0.0100    0.0100    0.0100    0.0100    0.0100    0.0100
    0.0100    0.0100    0.0100    0.0100    0.0100    0.0100    0.0100    0.0100
    0.0100    0.0100
   </PP_RAB>
 </PP_MESH>
  <PP_LOCAL type="real"  size=" 602" columns="4">
   -3.7742920310E+01   -3.7448818492E+01   -3.7710698660E+01   -3.8572960921E+01
   -4.0080005381E+01   -4.0224916689E+01   -3.8376759813E+01   -3.7106788482E+01
   -3.6846728272E+01   -3.6912446554E+01   -3.6990005098E+01   -3.7024600575E+01
   -3.7025239154E+01   -3.7005233006E+01   -3.6973082621E+01   -3.6933534653E+01
   -3.6889290202E+01   -3.6842049699E+01   -3.6793044064E+01   -3.6743285160E+01
   -3.6693676116E+01   -3.6645052436E+01   -3.6598187766E+01   -3.6553780026E+01
   -3.6512425742E+01   -3.6474586999E+01   -3.6440554604E+01   -3.6410411032E+01
   -3.6383997417E+01   -3.6360888745E+01   -3.6340381954E+01   -3.6321500900E+01
   -3.6303021056E+01   -3.6283514724E+01   -3.6261415409E+01   -3.6235098413E+01
   -3.6202971032E+01   -3.6163564804E+01   -3.6115622293E+01   -3.6058171179E+01
   -3.5990576475E+01   -3.5912569438E+01   -3.5824249709E+01   -3.5726061657E+01
   -3.5618748152E+01   -3.5503287109E+01   -3.5380817553E+01   -3.5252562606E+01
   -3.5119756723E+01   -3.4983582898E+01   -3.4845122511E+01   -3.4705323346E+01
   -3.4564983838E+01   -3.4424745420E+01   -3.4285105252E+01   -3.4146428225E+01
   -3.4008966735E+01   -3.3872881984E+01   -3.3738262238E+01   -3.3605141575E+01
   -3.3473514049E+01   -3.3343345347E+01   -3.3214582398E+01   -3.3087158742E+01
   -3.2960999498E+01   -3.2836023538E+01   -3.2712144274E+01   -3.2589269847E+01
   -3.2467302292E+01   -3.2346136071E+01   -3.2225656366E+01   -3.2105737615E+01
   -3.1986241966E+01   -3.1867018248E+01   -3.1747901294E+01   -3.1628712056E+01
   -3.1509259050E+01   -3.1389340356E+01   -3.1268746757E+01   -3.1147265842E+01
   -3.1024686928E+01   -3.0900806591E+01   -3.0775434491E+01   -3.0648399143E+01
   -3.0519553266E+01   -3.0388778341E+01   -3.0255988072E+01   -3.0121130523E+01
   -2.9984188816E+01   -2.9845180375E+01   -2.9704154835E+01   -2.9561190814E+01
   -2.9416391816E+01   -2.9269881591E+01   -2.9121799237E+01   -2.8972294368E+01
   -2.8821522552E+01   -2.8669641395E+01   -2.8516806791E+01   -2.8363169963E+01
   -2.8208875447E+01   -2.8054059552E+01   -2.7898849407E+01   -2.7743362766E+01
   -2.7587707390E+01   -2.7431980913E+01   -2.7276272297E+01   -2.7120662102E+01
   -2.6965223478E+01   -2.6810022189E+01   -2.6655117416E+01   -2.6500563271E+01
   -2.6346409201E+01   -2.6192700525E+01   -2.6039478260E+01   -2.5886780733E+01
   -2.5734643693E+01   -2.5583100304E+01   -2.5432181342E+01   -2.5281915933E+01
   -2.5132331761E+01   -2.4983454292E+01   -2.4835307734E+01   -2.4687915128E+01
   -2.4541297762E+01   -2.4395475473E+01   -2.4250467112E+01   -2.4106289888E+01
   -2.3962959429E+01   -2.3820490498E+01   -2.3678896089E+01   -2.3538187679E+01
   -2.3398376040E+01   -2.3259469877E+01   -2.3121476821E+01   -2.2984403823E+01
   -2.2848255679E+01   -2.2713036869E+01   -2.2578750662E+01   -2.2445399201E+01
   -2.2312984433E+01   -2.2181507071E+01   -2.2050967778E+01   -2.1921366712E+01
   -2.1792703894E+01   -2.1664979243E+01   -2.1538192875E+01   -2.1412345000E+01
   -2.1287436210E+01   -2.1163467583E+01   -2.1040440388E+01   -2.0918356920E+01
   -2.0797219259E+01   -2.0677030843E+01   -2.0557794807E+01   -2.0439515227E+01
   -2.0322196042E+01   -2.0205841597E+01   -2.0090455940E+01   -1.9976043213E+01
   -1.9862606619E+01   -1.9750149504E+01   -1.9638673165E+01   -1.9528179454E+01
   -1.9418666773E+01   -1.9310134725E+01   -1.9202578071E+01   -1.9095993438E+01
   -1.8990371587E+01   -1.8885705582E+01   -1.8781982307E+01   -1.8679190935E+01
   -1.8577315073E+01   -1.8476340073E+01   -1.8376247213E+01   -1.8277018595E+01
   -1.8178634250E+01   -1.8081074126E+01   -1.7984317963E+01   -1.7888344984E+01
   -1.7793135408E+01   -1.7698669074E+01   -1.7604927530E+01   -1.7511895588E+01
   -1.7419556752E+01   -1.7327904094E+01   -1.7236924491E+01   -1.7146617272E+01
   -1.7056975437E+01   -1.6968000611E+01   -1.6879692469E+01   -1.6792053693E+01
   -1.6705088806E+01   -1.6618801590E+01   -1.6533198609E+01   -1.6448285222E+01
   -1.6364067530E+01   -1.6280551922E+01   -1.6197743451E+01   -1.6115647330E+01
   -1.6034268542E+01   -1.5953609352E+01   -1.5873674650E+01   -1.5794464284E+01
   -1.5715980312E+01   -1.5638222708E+01   -1.5561189562E+01   -1.5484881146E+01
   -1.5409292789E+01   -1.5334422403E+01   -1.5260265609E+01   -1.5186817114E+01
   -1.5114072973E+01   -1.5042026065E+01   -1.4970670871E+01   -1.4900000700E+01
   -1.4830008175E+01   -1.4760686860E+01   -1.4692028665E+01   -1.4624026182E+01
   -1.4556671787E+01   -1.4489957428E+01   -1.4423875333E+01   -1.4358417500E+01
   -1.4293575935E+01   -1.4229342651E+01   -1.4165709761E+01   -1.4102669270E+01
   -1.4040213300E+01   -1.3978334143E+01   -1.3917023849E+01   -1.3856274856E+01
   -1.3796079614E+01   -1.3736430286E+01   -1.3677319688E+01   -1.3618740367E+01
   -1.3560684813E+01   -1.3503146037E+01   -1.3446116744E+01   -1.3389589761E+01
   -1.3333558263E+01   -1.3278015126E+01   -1.3222953479E+01   -1.3168366655E+01
   -1.3114247700E+01   -1.3060590011E+01   -1.3007387075E+01   -1.2954632077E+01
   -1.2902318691E+01   -1.2850440611E+01   -1.2798991101E+01   -1.2747964251E+01
   -1.2697354104E+01   -1.2647154165E+01   -1.2597358966E+01   -1.2547962964E+01
   -1.2498960108E+01   -1.2450345221E+01   -1.2402113105E+01   -1.2354258032E+01
   -1.2306775141E+01   -1.2259659671E+01   -1.2212906346E+01   -1.2166510518E+01
   -1.2120467831E+01   -1.2074773435E+01   -1.2029422842E+01   -1.1984412120E+01
   -1.1939736875E+01   -1.1895392723E+01   -1.1851376141E+01   -1.1807683186E+01
   -1.1764309541E+01   -1.1721252065E+01   -1.1678507160E+01   -1.1636070844E+01
   -1.1593940030E+01   -1.1552111491E+01   -1.1510581691E+01   -1.1469347446E+01
   -1.1428405869E+01   -1.1387753807E+01   -1.1347388018E+01   -1.1307305846E+01
   -1.1267504382E+01   -1.1227980495E+01   -1.1188731571E+01   -1.1149754903E+01
   -1.1111047625E+01   -1.1072606990E+01   -1.1034430528E+01   -1.0996515615E+01
   -1.0958859417E+01   -1.0921459629E+01   -1.0884313756E+01   -1.0847419199E+01
   -1.0810773489E+01   -1.0774374332E+01   -1.0738219326E+01   -1.0702305909E+01
   -1.0666631907E+01   -1.0631195014E+01   -1.0595992860E+01   -1.0561023110E+01
   -1.0526283623E+01   -1.0491772155E+01   -1.0457486362E+01   -1.0423424114E+01
   -1.0389583273E+01   -1.0355961650E+01   -1.0322556933E+01   -1.0289367177E+01
   -1.0256390284E+01   -1.0223624054E+01   -1.0191066362E+01   -1.0158715403E+01
   -1.0126569198E+01   -1.0094625600E+01   -1.0062882766E+01   -1.0031338945E+01
   -9.9999922776E+00   -9.9688407671E+00   -9.9378827201E+00   -9.9071163818E+00
   -9.8765399661E+00   -9.8461514832E+00   -9.8159494314E+00   -9.7859321186E+00
   -9.7560978296E+00   -9.7264447216E+00   -9.6969713443E+00   -9.6676760777E+00
   -9.6385572717E+00   -9.6096131890E+00   -9.5808424439E+00   -9.5522434922E+00
   -9.5238147563E+00   -9.4955545851E+00   -9.4674616575E+00   -9.4395345010E+00
   -9.4117716163E+00   -9.3841714133E+00   -9.3567326410E+00   -9.3294538953E+00
   -9.3023337603E+00   -9.2753706851E+00   -9.2485634928E+00   -9.2219108446E+00
   -9.1954114017E+00   -9.1690636656E+00   -9.1428665034E+00   -9.1168186498E+00
   -9.0909188282E+00   -9.0651656330E+00   -9.0395579193E+00   -9.0140945116E+00
   -8.9887741926E+00   -8.9635956552E+00   -8.9385577232E+00   -8.9136593143E+00
   -8.8888992679E+00   -8.8642763809E+00   -8.8397894285E+00   -8.8154374239E+00
   -8.7912192606E+00   -8.7671338320E+00   -8.7431798871E+00   -8.7193564990E+00
   -8.6956626244E+00   -8.6720972082E+00   -8.6486591095E+00   -8.6253473141E+00
   -8.6021608869E+00   -8.5790988221E+00   -8.5561600961E+00   -8.5333435932E+00
   -8.5106484861E+00   -8.4880738157E+00   -8.4656186229E+00   -8.4432818551E+00
   -8.4210626177E+00   -8.3989600523E+00   -8.3769732444E+00   -8.3551012667E+00
   -8.3333430910E+00   -8.3116979749E+00   -8.2901650465E+00   -8.2687434338E+00
   -8.2474321947E+00   -8.2262304741E+00   -8.2051375135E+00   -8.1841524815E+00
   -8.1632745467E+00   -8.1425027627E+00   -8.1218364228E+00   -8.1012747569E+00
   -8.0808169723E+00   -8.0604622579E+00   -8.0402097289E+00   -8.0200587447E+00
   -8.0000085497E+00   -7.9800583881E+00   -7.9602074544E+00   -7.9404549723E+00
   -7.9208003044E+00   -7.9012427300E+00   -7.8817815288E+00   -7.8624159083E+00
   -7.8431451798E+00   -7.8239687145E+00   -7.8048858254E+00   -7.7858958257E+00
   -7.7669979431E+00   -7.7481915557E+00   -7.7294760499E+00   -7.7108507707E+00
   -7.6923150633E+00   -7.6738681819E+00   -7.6555095519E+00   -7.6372385814E+00
   -7.6190546459E+00   -7.6009571212E+00   -7.5829452933E+00   -7.5650186173E+00
   -7.5471765288E+00   -7.5294184327E+00   -7.5117437336E+00   -7.4941517549E+00
   -7.4766419644E+00   -7.4592138311E+00   -7.4418667876E+00   -7.4246002662E+00
   -7.4074136330E+00   -7.3903063522E+00   -7.3732779318E+00   -7.3563278308E+00
   -7.3394555079E+00   -7.3226603770E+00   -7.3059418838E+00   -7.2892995801E+00
   -7.2727329499E+00   -7.2562414772E+00   -7.2398246286E+00   -7.2234818179E+00
   -7.2072126443E+00   -7.1910166160E+00   -7.1748932409E+00   -7.1588420273E+00
   -7.1428623924E+00   -7.1269539386E+00   -7.1111162126E+00   -7.0953487455E+00
   -7.0796510681E+00   -7.0640226600E+00   -7.0484630604E+00   -7.0329718759E+00
   -7.0175486591E+00   -7.0021929632E+00   -6.9869043346E+00   -6.9716822390E+00
   -6.9565263443E+00   -6.9414362244E+00   -6.9264114529E+00   -6.9114516034E+00
   -6.8965561932E+00   -6.8817248195E+00   -6.8669571197E+00   -6.8522526874E+00
   -6.8376111160E+00   -6.8230319988E+00   -6.8085148343E+00   -6.7940593301E+00
   -6.7796650987E+00   -6.7653317525E+00   -6.7510589042E+00   -6.7368461300E+00
   -6.7226930256E+00   -6.7085992809E+00   -6.6945645266E+00   -6.6805883931E+00
   -6.6666705109E+00   -6.6528104475E+00   -6.6390078780E+00   -6.6252624800E+00
   -6.6115739015E+00   -6.5979417900E+00   -6.5843657935E+00   -6.5708454774E+00
   -6.5573805787E+00   -6.5439707694E+00   -6.5306157135E+00   -6.5173150753E+00
   -6.5040685115E+00   -6.4908756145E+00   -6.4777361443E+00   -6.4646497807E+00
   -6.4516162037E+00   -6.4386350929E+00   -6.4257061124E+00   -6.4128288899E+00
   -6.4000031904E+00   -6.3872287087E+00   -6.3745051395E+00   -6.3618321777E+00
   -6.3492095001E+00   -6.3366367554E+00   -6.3241137189E+00   -6.3116400998E+00
   -6.2992156070E+00   -6.2868399494E+00   -6.2745128226E+00   -6.2622338821E+00
   -6.2500029192E+00   -6.2378196565E+00   -6.2256838164E+00   -6.2135951214E+00
   -6.2015532906E+00   -6.1895579743E+00   -6.1776089838E+00   -6.1657060547E+00
   -6.1538489225E+00   -6.1420373226E+00   -6.1302709904E+00   -6.1185495947E+00
   -6.1068729361E+00   -6.0952407741E+00   -6.0836528565E+00   -6.0721089312E+00
   -6.0606087459E+00   -6.0491520031E+00   -6.0377384703E+00   -6.0263679393E+00
   -6.0150401695E+00   -6.0037549205E+00   -5.9925119517E+00   -5.9813110042E+00
   -5.9701518021E+00   -5.9590341725E+00   -5.9479578862E+00   -5.9369227139E+00
   -5.9259284264E+00   -5.9149747945E+00   -5.9040615283E+00   -5.8931884550E+00
   -5.8823553686E+00   -5.8715620506E+00   -5.8608082825E+00   -5.8500938456E+00
   -5.8394184973E+00   -5.8287819985E+00   -5.8181841886E+00   -5.8076248591E+00
   -5.7971038016E+00   -5.7866208078E+00   -5.7761756693E+00   -5.7657681245E+00
   -5.7553980084E+00   -5.7450651392E+00   -5.7347693183E+00   -5.7245103470E+00
   -5.7142880265E+00   -5.7041021506E+00   -5.6939524688E+00   -5.6838388519E+00
   -5.6737611103E+00   -5.6637190548E+00   -5.6537124959E+00   -5.6437412442E+00
   -5.6338050846E+00   -5.6239038151E+00   -5.6140372964E+00   -5.6042053479E+00
   -5.5944077890E+00   -5.5846444392E+00   -5.5749151178E+00   -5.5652196070E+00
   -5.5555577398E+00   -5.5459293721E+00   -5.5363343319E+00   -5.5267724469E+00
   -5.5172435449E+00   -5.5077474538E+00   -5.4982839584E+00   -5.4888529138E+00
   -5.4794541767E+00   -5.4700875830E+00   -5.4607529685E+00   -5.4514501691E+00
   -5.4421790205E+00   -5.4329393151E+00   -5.4237309186E+00   -5.4145536933E+00
   -5.4054074827E+00   -5.3962921302E+00   -5.3872074794E+00   -5.3781533737E+00
   -5.3691296177E+00   -5.3601360762E+00   -5.3511726221E+00   -5.3422391061E+00
   -5.3333353790E+00   -5.3244612917E+00
  </PP_LOCAL>
 <PP_NONLOCAL>
   <PP_BETA.1
       type="real"
       size=" 602"
       columns="4"
       index="1"
       angular_momentum="0"
       cutoff_radius_index=" 316"
       cutoff_radius="    3.1500000000E+00" >
    0.0000000000E+00   -1.7618943209E-02   -3.5248927713E-02   -5.2900932198E-02
   -7.0585810313E-02   -8.8314228615E-02   -1.0609660508E-01   -1.2394304833E-01
   -1.4186329781E-01   -1.5986666506E-01   -1.7796197623E-01   -1.9615751609E-01
   -2.1446097361E-01   -2.3287938942E-01   -2.5141910504E-01   -2.7008571445E-01
   -2.8888401765E-01   -3.0781797686E-01   -3.2689067508E-01   -3.4610427737E-01
   -3.6545999502E-01   -3.8495805242E-01   -4.0459765722E-01   -4.2437697336E-01
   -4.4429309752E-01   -4.6434203874E-01   -4.8451870155E-01   -5.0481687240E-01
   -5.2522920981E-01   -5.4574723790E-01   -5.6636134362E-01   -5.8706077765E-01
   -6.0783365891E-01   -6.2866698277E-01   -6.4954663293E-01   -6.7045739701E-01
   -6.9138298582E-01   -7.1230605615E-01   -7.3320823722E-01   -7.5407016091E-01
   -7.7487149503E-01   -7.9559098036E-01   -8.1620647093E-01   -8.3669497763E-01
   -8.5703271494E-01   -8.7719515080E-01   -8.9715705942E-01   -9.1689257689E-01
   -9.3637525890E-01   -9.5557814177E-01   -9.7447380845E-01   -9.9303445105E-01
   -1.0112319345E+00   -1.0290378798E+00   -1.0464237196E+00   -1.0633607803E+00
   -1.0798203567E+00   -1.0957737793E+00   -1.1111925043E+00   -1.1260481770E+00
   -1.1403127179E+00   -1.1539584072E+00   -1.1669579327E+00   -1.1792845210E+00
   -1.1909119693E+00   -1.2018147265E+00   -1.2119680116E+00   -1.2213478470E+00
   -1.2299311374E+00   -1.2376957609E+00   -1.2446206436E+00   -1.2506858104E+00
   -1.2558724607E+00   -1.2601630290E+00   -1.2635412577E+00   -1.2659922668E+00
   -1.2675025903E+00   -1.2680602394E+00   -1.2676547545E+00   -1.2662772527E+00
   -1.2639204730E+00   -1.2605788166E+00   -1.2562483838E+00   -1.2509270067E+00
   -1.2446142778E+00   -1.2373115740E+00   -1.2290220767E+00   -1.2197507866E+00
   -1.2095045346E+00   -1.1982919876E+00   -1.1861236495E+00   -1.1730118574E+00