<UPF version="2.0.1">
  <PP_INFO>

 This pseudopotential file has been produced using the code
 ONCVPSP  (Optimized Norm-Conservinng Vanderbilt PSeudopotential)
 scalar-relativistic version 2.1.1, 03/26/2014 by D. R. Hamann
 The code is available through a link at URL www.mat-simresearch.com.
 Documentation with the package provides a full discription of the
 input data below.


 While it is not required under the terms of the GNU GPL, it is
 suggested that you cite D. R. Hamann, Phys. Rev. B 88, 085117 (2013)
 in any publication using these pseudopotentials.


 Copyright 2015 The Regents of the University of California
 
 This work is licensed under the Creative Commons Attribution-ShareAlike 
 4.0 International License. To view a copy of this license, visit 
 http://creativecommons.org/licenses/by-sa/4.0/ or send a letter to 
 Creative Commons, PO Box 1866, Mountain View, CA 94042, USA.
 
 This pseudopotential is part of the Schlipf-Gygi norm-conserving 
 pseudopotential library. Its construction parameters were tuned to 
 reproduce materials of a training set with very high accuracy and 
 should be suitable as a general purpose pseudopotential to treat a 
 variety of different compounds. For details of the construction and 
 testing of the pseudopotential please refer to:
 
 [insert reference to paper here]
 
 We kindly ask that you include this reference in all publications 
 associated to this pseudopotential.


    <PP_INPUTFILE>
# ATOM AND REFERENCE CONFIGURATION
# atsym  z    nc    nv    iexc   psfile
  Tl 81.00    12     3     4      upf
#
#   n    l    f        energy (Ha)
    1    0    2.00
    2    0    2.00
    2    1    6.00
    3    0    2.00
    3    1    6.00
    3    2   10.00
    4    0    2.00
    4    1    6.00
    4    2   10.00
    4    3   14.00
    5    0    2.00
    5    1    6.00
    5    2   10.00
    6    0    2.00
    6    1    1.00
#
# PSEUDOPOTENTIAL AND OPTIMIZATION
# lmax
    3
#
#   l,   rc,     ep,   ncon, nbas, qcut
    0   3.31232  -0.35082    5    8   4.13746
    1   3.64398  -0.08711    5    8   3.85498
    2   3.15798  -0.56910    5    8   6.35778
    3   3.35206   0.26572    5    8   6.11072
#
# LOCAL POTENTIAL
# lloc, lpopt,  rc(5),   dvloc0
    4    5   2.73680      0.00000
#
# VANDERBILT-KLEINMAN-BYLANDER PROJECTORs
# l, nproj, debl
    0    2   1.28166
    1    2   0.90266
    2    2   1.15958
    3    2   1.22937
#
# MODEL CORE CHARGE
# icmod, fcfact
    0   0.00000
#
# LOG DERIVATIVE ANALYSIS
# epsh1, epsh2, depsh
   -5.00    3.00    0.02
#
# OUTPUT GRID
# rlmax, drl
    6.00    0.01
#
# TEST CONFIGURATIONS
# ncnf
    0
# nvcnf
#   n    l    f
    </PP_INPUTFILE>
  </PP_INFO>
  <!--                               -->
  <!-- END OF HUMAN READABLE SECTION -->
  <!--                               -->
    <PP_HEADER
       generated="Generated using ONCVPSP code by D. R. Hamann"
       author="Martin Schlipf and Francois Gygi"
       date="150105"
       comment=""
       element="Tl"
       pseudo_type="NC"
       relativistic="scalar"
       is_ultrasoft="F"
       is_paw="F"
       is_coulomb="F"
       has_so="F"
       has_wfc="F"
       has_gipaw="F"
       core_correction="F"
       functional="PBE"
       z_valence="   13.00"
       total_psenergy="  -4.78794427527E+01"
       rho_cutoff="   6.01000000000E+00"
       l_max="3"
       l_local="-1"
       mesh_size="   602"
       number_of_wfc="0"
       number_of_proj="8"/>
 <PP_MESH>
   <PP_R type="real"  size=" 602" columns="8">
    0.0000    0.0100    0.0200    0.0300    0.0400    0.0500    0.0600    0.0700
    0.0800    0.0900    0.1000    0.1100    0.1200    0.1300    0.1400    0.1500
    0.1600    0.1700    0.1800    0.1900    0.2000    0.2100    0.2200    0.2300
    0.2400    0.2500    0.2600    0.2700    0.2800    0.2900    0.3000    0.3100
    0.3200    0.3300    0.3400    0.3500    0.3600    0.3700    0.3800    0.3900
    0.4000    0.4100    0.4200    0.4300    0.4400    0.4500    0.4600    0.4700
    0.4800    0.4900    0.5000    0.5100    0.5200    0.5300    0.5400    0.5500
    0.5600    0.5700    0.5800    0.5900    0.6000    0.6100    0.6200    0.6300
    0.6400    0.6500    0.6600    0.6700    0.6800    0.6900    0.7000    0.7100
    0.7200    0.7300    0.7400    0.7500    0.7600    0.7700    0.7800    0.7900
    0.8000    0.8100    0.8200    0.8300    0.8400    0.8500    0.8600    0.8700
    0.8800    0.8900    0.9000    0.9100    0.9200    0.9300    0.9400    0.9500
    0.9600    0.9700    0.9800    0.9900    1.0000    1.0100    1.0200    1.0300
    1.0400    1.0500    1.0600    1.0700    1.0800    1.0900    1.1000    1.1100
    1.1200    1.1300    1.1400    1.1500    1.1600    1.1700    1.1800    1.1900
    1.2000    1.2100    1.2200    1.2300    1.2400    1.2500    1.2600    1.2700
    1.2800    1.2900    1.3000    1.3100    1.3200    1.3300    1.3400    1.3500
    1.3600    1.3700    1.3800    1.3900    1.4000    1.4100    1.4200    1.4300
    1.4400    1.4500    1.4600    1.4700    1.4800    1.4900    1.5000    1.5100
    1.5200    1.5300    1.5400    1.5500    1.5600    1.5700    1.5800    1.5900
    1.6000    1.6100    1.6200    1.6300    1.6400    1.6500    1.6600    1.6700
    1.6800    1.6900    1.7000    1.7100    1.7200    1.7300    1.7400    1.7500
    1.7600    1.7700    1.7800    1.7900    1.8000    1.8100    1.8200    1.8300
    1.8400    1.8500    1.8600    1.8700    1.8800    1.8900    1.9000    1.9100
    1.9200    1.9300    1.9400    1.9500    1.9600    1.9700    1.9800    1.9900
    2.0000    2.0100    2.0200    2.0300    2.0400    2.0500    2.0600    2.0700
    2.0800    2.0900    2.1000    2.1100    2.1200    2.1300    2.1400    2.1500
    2.1600    2.1700    2.1800    2.1900    2.2000    2.2100    2.2200    2.2300
    2.2400    2.2500    2.2600    2.2700    2.2800    2.2900    2.3000    2.3100
    2.3200    2.3300    2.3400    2.3500    2.3600    2.3700    2.3800    2.3900
    2.4000    2.4100    2.4200    2.4300    2.4400    2.4500    2.4600    2.4700
    2.4800    2.4900    2.5000    2.5100    2.5200    2.5300    2.5400    2.5500
    2.5600    2.5700    2.5800    2.5900    2.6000    2.6100    2.6200    2.6300
    2.6400    2.6500    2.6600    2.6700    2.6800    2.6900    2.7000    2.7100
    2.7200    2.7300    2.7400    2.7500    2.7600    2.7700    2.7800    2.7900
    2.8000    2.8100    2.8200    2.8300    2.8400    2.8500    2.8600    2.8700
    2.8800    2.8900    2.9000    2.9100    2.9200    2.9300    2.9400    2.9500
    2.9600    2.9700    2.9800    2.9900    3.0000    3.0100    3.0200    3.0300
    3.0400    3.0500    3.0600    3.0700    3.0800    3.0900    3.1000    3.1100
    3.1200    3.1300    3.1400    3.1500    3.1600    3.1700    3.1800    3.1900
    3.2000    3.2100    3.2200    3.2300    3.2400    3.2500    3.2600    3.2700
    3.2800    3.2900    3.3000    3.3100    3.3200    3.3300    3.3400    3.3500
    3.3600    3.3700    3.3800    3.3900    3.4000    3.4100    3.4200    3.4300
    3.4400    3.4500    3.4600    3.4700    3.4800    3.4900    3.5000    3.5100
    3.5200    3.5300    3.5400    3.5500    3.5600    3.5700    3.5800    3.5900
    3.6000    3.6100    3.6200    3.6300    3.6400    3.6500    3.6600    3.6700
    3.6800    3.6900    3.7000    3.7100    3.7200    3.7300    3.7400    3.7500
    3.7600    3.7700    3.7800    3.7900    3.8000    3.8100    3.8200    3.8300
    3.8400    3.8500    3.8600    3.8700    3.8800    3.8900    3.9000    3.9100
    3.9200    3.9300    3.9400    3.9500    3.9600    3.9700    3.9800    3.9900
    4.0000    4.0100    4.0200    4.0300    4.0400    4.0500    4.0600    4.0700
    4.0800    4.0900    4.1000    4.1100    4.1200    4.1300    4.1400    4.1500
    4.1600    4.1700    4.1800    4.1900    4.2000    4.2100    4.2200    4.2300
    4.2400    4.2500    4.2600    4.2700    4.2800    4.2900    4.3000    4.3100
    4.3200    4.3300    4.3400    4.3500    4.3600    4.3700    4.3800    4.3900
    4.4000    4.4100    4.4200    4.4300    4.4400    4.4500    4.4600    4.4700
    4.4800    4.4900    4.5000    4.5100    4.5200    4.5300    4.5400    4.5500
    4.5600    4.5700    4.5800    4.5900    4.6000    4.6100    4.6200    4.6300
    4.6400    4.6500    4.6600    4.6700    4.6800    4.6900    4.7000    4.7100
    4.7200    4.7300    4.7400    4.7500    4.7600    4.7700    4.7800    4.7900
    4.8000    4.8100    4.8200    4.8300    4.8400    4.8500    4.8600    4.8700
    4.8800    4.8900    4.9000    4.9100    4.9200    4.9300    4.9400    4.9500
    4.9600    4.9700    4.9800    4.9900    5.0000    5.0100    5.0200    5.0300
    5.0400    5.0500    5.0600    5.0700    5.0800    5.0900    5.1000    5.1100
    5.1200    5.1300    5.1400    5.1500    5.1600    5.1700    5.1800    5.1900
    5.2000    5.2100    5.2200    5.2300    5.2400    5.2500    5.2600    5.2700
    5.2800    5.2900    5.3000    5.3100    5.3200    5.3300    5.3400    5.3500
    5.3600    5.3700    5.3800    5.3900    5.4000    5.4100    5.4200    5.4300
    5.4400    5.4500    5.4600    5.4700    5.4800    5.4900    5.5000    5.5100
    5.5200    5.5300    5.5400    5.5500    5.5600    5.5700    5.5800    5.5900
    5.6000    5.6100    5.6200    5.6300    5.6400    5.6500    5.6600    5.6700
    5.6800    5.6900    5.7000    5.7100    5.7200    5.7300    5.7400    5.7500
    5.7600    5.7700    5.7800    5.7900    5.8000    5.8100    5.8200    5.8300
    5.8400    5.8500    5.8600    5.8700    5.8800    5.8900    5.9000    5.9100
    5.9200    5.9300    5.9400    5.9500    5.9600    5.9700    5.9800    5.9900
    6.0000    6.0100
   </PP_R>
   <PP_RAB type="real"  size=" 602" columns="8">
    0.0100    0.0100    0.0100    0.0100    0.0100    0.0100    0.0100    0.0100
    0.0100    0.0100    0.0100    0.0100    0.0100    0.0100    0.0100    0.0100
    0.0100    0.0100    0.0100    0.0100    0.0100    0.0100    0.0100    0.0100
    0.0100    0.0100    0.0100    0.0100    0.0100    0.0100    0.0100    0.0100
    0.0100    0.0100    0.0100    0.0100    0.0100    0.0100    0.0100    0.0100
    0.0100    0.0100    0.0100    0.0100    0.0100    0.0100    0.0100    0.0100
    0.0100    0.0100    0.0100    0.0100    0.0100    0.0100    0.0100    0.0100
    0.0100    0.0100    0.0100    0.0100    0.0100    0.0100    0.0100    0.0100
    0.0100    0.0100    0.0100    0.0100    0.0100    0.0100    0.0100    0.0100
    0.0100    0.0100    0.0100    0.0100    0.0100    0.0100    0.0100    0.0100
    0.0100    0.0100    0.0100    0.0100    0.0100    0.0100    0.0100    0.0100
    0.0100    0.0100    0.0100    0.0100    0.0100    0.0100    0.0100    0.0100
    0.0100    0.0100    0.0100    0.0100    0.0100    0.0100    0.0100    0.0100
    0.0100    0.0100    0.0100    0.0100    0.0100    0.0100    0.0100    0.0100
    0.0100    0.0100    0.0100    0.0100    0.0100    0.0100    0.0100    0.0100
    0.0100    0.0100    0.0100    0.0100    0.0100    0.0100    0.0100    0.0100
    0.0100    0.0100    0.0100    0.0100    0.0100    0.0100    0.0100    0.0100
    0.0100    0.0100    0.0100    0.0100    0.0100    0.0100    0.0100    0.0100
    0.0100    0.0100    0.0100    0.0100    0.0100    0.0100    0.0100    0.0100
    0.0100    0.0100    0.0100    0.0100    0.0100    0.0100    0.0100    0.0100
    0.0100    0.0100    0.0100    0.0100    0.0100    0.0100    0.0100    0.0100
    0.0100    0.0100    0.0100    0.0100    0.0100    0.0100    0.0100    0.0100
    0.0100    0.0100    0.0100    0.0100    0.0100    0.0100    0.0100    0.0100
    0.0100    0.0100    0.0100    0.0100    0.0100    0.0100    0.0100    0.0100
    0.0100    0.0100    0.0100    0.0100    0.0100    0.0100    0.0100    0.0100
    0.0100    0.0100    0.0100    0.0100    0.0100    0.0100    0.0100    0.0100
    0.0100    0.0100    0.0100    0.0100    0.0100    0.0100    0.0100    0.0100
    0.0100    0.0100    0.0100    0.0100    0.0100    0.0100    0.0100    0.0100
    0.0100    0.0100    0.0100    0.0100    0.0100    0.0100    0.0100    0.0100
    0.0100    0.0100    0.0100    0.0100    0.0100    0.0100    0.0100    0.0100
    0.0100    0.0100    0.0100    0.0100    0.0100    0.0100    0.0100    0.0100
    0.0100    0.0100    0.0100    0.0100    0.0100    0.0100    0.0100    0.0100
    0.0100    0.0100    0.0100    0.0100    0.0100    0.0100    0.0100    0.0100
    0.0100    0.0100    0.0100    0.0100    0.0100    0.0100    0.0100    0.0100
    0.0100    0.0100    0.0100    0.0100    0.0100    0.0100    0.0100    0.0100
    0.0100    0.0100    0.0100    0.0100    0.0100    0.0100    0.0100    0.0100
    0.0100    0.0100    0.0100    0.0100    0.0100    0.0100    0.0100    0.0100
    0.0100    0.0100    0.0100    0.0100    0.0100    0.0100    0.0100    0.0100
    0.0100    0.0100    0.0100    0.0100    0.0100    0.0100    0.0100    0.0100
    0.0100    0.0100    0.0100    0.0100    0.0100    0.0100    0.0100    0.0100
    0.0100    0.0100    0.0100    0.0100    0.0100    0.0100    0.0100    0.0100
    0.0100    0.0100    0.0100    0.0100    0.0100    0.0100    0.0100    0.0100
    0.0100    0.0100    0.0100    0.0100    0.0100    0.0100    0.0100    0.0100
    0.0100    0.0100    0.0100    0.0100    0.0100    0.0100    0.0100    0.0100
    0.0100    0.0100    0.0100    0.0100    0.0100    0.0100    0.0100    0.0100
    0.0100    0.0100    0.0100    0.0100    0.0100    0.0100    0.0100    0.0100
    0.0100    0.0100    0.0100    0.0100    0.0100    0.0100    0.0100    0.0100
    0.0100    0.0100    0.0100    0.0100    0.0100    0.0100    0.0100    0.0100
    0.0100    0.0100    0.0100    0.0100    0.0100    0.0100    0.0100    0.0100
    0.0100    0.0100    0.0100    0.0100    0.0100    0.0100    0.0100    0.0100
    0.0100    0.0100    0.0100    0.0100    0.0100    0.0100    0.0100    0.0100
    0.0100    0.0100    0.0100    0.0100    0.0100    0.0100    0.0100    0.0100
    0.0100    0.0100    0.0100    0.0100    0.0100    0.0100    0.0100    0.0100
    0.0100    0.0100    0.0100    0.0100    0.0100    0.0100    0.0100    0.0100
    0.0100    0.0100    0.0100    0.0100    0.0100    0.0100    0.0100    0.0100
    0.0100    0.0100    0.0100    0.0100    0.0100    0.0100    0.0100    0.0100
    0.0100    0.0100    0.0100    0.0100    0.0100    0.0100    0.0100    0.0100
    0.0100    0.0100    0.0100    0.0100    0.0100    0.0100    0.0100    0.0100
    0.0100    0.0100    0.0100    0.0100    0.0100    0.0100    0.0100    0.0100
    0.0100    0.0100    0.0100    0.0100    0.0100    0.0100    0.0100    0.0100
    0.0100    0.0100    0.0100    0.0100    0.0100    0.0100    0.0100    0.0100
    0.0100    0.0100    0.0100    0.0100    0.0100    0.0100    0.0100    0.0100
    0.0100    0.0100    0.0100    0.0100    0.0100    0.0100    0.0100    0.0100
    0.0100    0.0100    0.0100    0.0100    0.0100    0.0100    0.0100    0.0100
    0.0100    0.0100    0.0100    0.0100    0.0100    0.0100    0.0100    0.0100
    0.0100    0.0100    0.0100    0.0100    0.0100    0.0100    0.0100    0.0100
    0.0100    0.0100    0.0100    0.0100    0.0100    0.0100    0.0100    0.0100
    0.0100    0.0100    0.0100    0.0100    0.0100    0.0100    0.0100    0.0100
    0.0100    0.0100    0.0100    0.0100    0.0100    0.0100    0.0100    0.0100
    0.0100    0.0100    0.0100    0.0100    0.0100    0.0100    0.0100    0.0100
    0.0100    0.0100    0.0100    0.0100    0.0100    0.0100    0.0100    0.0100
    0.0100    0.0100    0.0100    0.0100    0.0100    0.0100    0.0100    0.0100
    0.0100    0.0100    0.0100    0.0100    0.0100    0.0100    0.0100    0.0100
    0.0100    0.0100    0.0100    0.0100    0.0100    0.0100    0.0100    0.0100
    0.0100    0.0100    0.0100    0.0100    0.0100    0.0100    0.0100    0.0100
    0.0100    0.0100
   </PP_RAB>
 </PP_MESH>
  <PP_LOCAL type="real"  size=" 602" columns="4">
   -2.1032141667E+01   -2.1661572386E+01   -2.1876626520E+01   -2.1879368721E+01
   -2.1871863641E+01   -2.1859234103E+01   -2.1841754318E+01   -2.1820084890E+01
   -2.1795052693E+01   -2.1767378345E+01   -2.1737610066E+01   -2.1706152121E+01
   -2.1673310151E+01   -2.1639328502E+01   -2.1604416594E+01   -2.1568766862E+01
   -2.1532567056E+01   -2.1496008871E+01   -2.1459294151E+01   -2.1422639358E+01
   -2.1386278662E+01   -2.1350465779E+01   -2.1315474547E+01   -2.1281598143E+01
   -2.1249146754E+01   -2.1218443530E+01   -2.1189818661E+01   -2.1163601377E+01
   -2.1140109890E+01   -2.1119639260E+01   -2.1102447440E+01   -2.1088739857E+01
   -2.1078653174E+01   -2.1072239216E+01   -2.1069449409E+01   -2.1070122267E+01
   -2.1073973333E+01   -2.1080591149E+01   -2.1089437446E+01   -2.1099855368E+01
   -2.1111084031E+01   -2.1122279982E+01   -2.1132544872E+01   -2.1140958043E+01
   -2.1146612247E+01   -2.1148650425E+01   -2.1146301226E+01   -2.1138910997E+01
   -2.1125970153E+01   -2.1107131534E+01   -2.1082223000E+01   -2.1051248307E+01
   -2.1014378731E+01   -2.0971940367E+01   -2.0924390792E+01   -2.0872290739E+01
   -2.0816276097E+01   -2.0757023812E+01   -2.0695222861E+01   -2.0631546875E+01
   -2.0566629560E+01   -2.0501048984E+01   -2.0435314718E+01   -2.0369860361E+01
   -2.0305045130E+01   -2.0241153605E+01   -2.0178402253E+01   -2.0116948090E+01
   -2.0056896823E+01   -1.9998309795E+01   -1.9941214394E+01   -1.9885610698E+01
   -1.9831477896E+01   -1.9778779429E+01   -1.9727467162E+01   -1.9677484865E+01
   -1.9628770403E+01   -1.9581257346E+01   -1.9534875993E+01   -1.9489553950E+01
   -1.9445216355E+01   -1.9401785879E+01   -1.9359182575E+01   -1.9317323660E+01
   -1.9276123290E+01   -1.9235492388E+01   -1.9195338566E+01   -1.9155566183E+01
   -1.9116076562E+01   -1.9076768386E+01   -1.9037538290E+01   -1.8998281634E+01
   -1.8958893463E+01   -1.8919269611E+01   -1.8879307942E+01   -1.8838909658E+01
   -1.8797980648E+01   -1.8756432812E+01   -1.8714185037E+01   -1.8671164942E+01
   -1.8627309672E+01   -1.8582566434E+01   -1.8536893120E+01   -1.8490258562E+01
   -1.8442642079E+01   -1.8394034427E+01   -1.8344436902E+01   -1.8293860043E+01
   -1.8242323084E+01   -1.8189852562E+01   -1.8136482830E+01   -1.8082253458E+01
   -1.8027208252E+01   -1.7971394279E+01   -1.7914861386E+01   -1.7857660570E+01
   -1.7799843160E+01   -1.7741460517E+01   -1.7682562840E+01   -1.7623198753E+01
   -1.7563415308E+01   -1.7503257378E+01   -1.7442766798E+01   -1.7381983300E+01
   -1.7320944414E+01   -1.7259683835E+01   -1.7198233349E+01   -1.7136622778E+01
   -1.7074878151E+01   -1.7013024076E+01   -1.6951083352E+01   -1.6889075664E+01
   -1.6827019784E+01   -1.6764932670E+01   -1.6702829184E+01   -1.6640723625E+01
   -1.6578628427E+01   -1.6516554970E+01   -1.6454514201E+01   -1.6392515265E+01
   -1.6330567195E+01   -1.6268678042E+01   -1.6206855055E+01   -1.6145105392E+01
   -1.6083435017E+01   -1.6021849950E+01   -1.5960355487E+01   -1.5898956563E+01
   -1.5837657902E+01   -1.5776463543E+01   -1.5715377638E+01   -1.5654403559E+01
   -1.5593544763E+01   -1.5532804172E+01   -1.5472184564E+01   -1.5411688438E+01
   -1.5351317948E+01   -1.5291075191E+01   -1.5230961755E+01   -1.5170979344E+01
   -1.5111129043E+01   -1.5051412176E+01   -1.4991829405E+01   -1.4932381646E+01
   -1.4873069252E+01   -1.4813892763E+01   -1.4754852272E+01   -1.4695948011E+01
   -1.4637179872E+01   -1.4578547850E+01   -1.4520051706E+01   -1.4461691273E+01
   -1.4403466261E+01   -1.4345376412E+01   -1.4287421478E+01   -1.4229601174E+01
   -1.4171915395E+01   -1.4114363887E+01   -1.4056946764E+01   -1.3999663914E+01
   -1.3942515687E+01   -1.3885502225E+01   -1.3828624122E+01   -1.3771881884E+01
   -1.3715276337E+01   -1.3658808443E+01   -1.3602479240E+01   -1.3546290212E+01
   -1.3490242589E+01   -1.3434338376E+01   -1.3378579077E+01   -1.3322967045E+01
   -1.3267504276E+01   -1.3212193242E+01   -1.3157036474E+01   -1.3102036533E+01
   -1.3047196409E+01   -1.2992518766E+01   -1.2938006866E+01   -1.2883663688E+01
   -1.2829492480E+01   -1.2775496524E+01   -1.2721679071E+01   -1.2668043543E+01
   -1.2614593276E+01   -1.2561331674E+01   -1.2508262144E+01   -1.2455388065E+01
   -1.2402712779E+01   -1.2350239713E+01   -1.2297972081E+01   -1.2245913219E+01
   -1.2194066353E+01   -1.2142434592E+01   -1.2091021221E+01   -1.2039829170E+01
   -1.1988861530E+01   -1.1938121308E+01   -1.1887611322E+01   -1.1837334583E+01
   -1.1787293803E+01   -1.1737491756E+01   -1.1687931262E+01   -1.1638614873E+01
   -1.1589545309E+01   -1.1540725147E+01   -1.1492156870E+01   -1.1443843119E+01
   -1.1395786255E+01   -1.1347988713E+01   -1.1300452993E+01   -1.1253181300E+01
   -1.1206176017E+01   -1.1159439432E+01   -1.1112973629E+01   -1.1066780917E+01
   -1.1020863320E+01   -1.0975222775E+01   -1.0929861502E+01   -1.0884781190E+01
   -1.0839983594E+01   -1.0795470825E+01   -1.0751244147E+01   -1.0707305143E+01
   -1.0663655648E+01   -1.0620296554E+01   -1.0577229195E+01   -1.0534455051E+01
   -1.0491974619E+01   -1.0449788919E+01   -1.0407899038E+01   -1.0366305035E+01
   -1.0325007554E+01   -1.0284007280E+01   -1.0243303793E+01   -1.0202897296E+01
   -1.0162788093E+01   -1.0122975247E+01   -1.0083458463E+01   -1.0044237703E+01
   -1.0005311490E+01   -9.9666789818E+00   -9.9283398485E+00   -9.8902920609E+00
   -9.8525342421E+00   -9.8150656830E+00   -9.7778839486E+00   -9.7409871452E+00
   -9.7043739821E+00   -9.6680418870E+00   -9.6319883882E+00   -9.5962115771E+00
   -9.5607088431E+00   -9.5254771765E+00   -9.4905139903E+00   -9.4558166381E+00
   -9.4213819526E+00   -9.3872070142E+00   -9.3532889286E+00   -9.3196247294E+00
   -9.2862114783E+00   -9.2530461941E+00   -9.2201259870E+00   -9.1874479702E+00
   -9.1550091935E+00   -9.1228067384E+00   -9.0908378523E+00   -9.0590996999E+00
   -9.0275892723E+00   -8.9963039914E+00   -8.9652411344E+00   -8.9343978413E+00
   -8.9037714413E+00   -8.8733594548E+00   -8.8431592723E+00   -8.8131680163E+00
   -8.7833835070E+00   -8.7538032883E+00   -8.7244247409E+00   -8.6952454771E+00
   -8.6662633744E+00   -8.6374761391E+00   -8.6088811659E+00   -8.5804765942E+00
   -8.5522603295E+00   -8.5242301354E+00   -8.4963837994E+00   -8.4687196109E+00
   -8.4412356126E+00   -8.4139296192E+00   -8.3867998758E+00   -8.3598447124E+00
   -8.3330623322E+00   -8.3064506323E+00   -8.2800082426E+00   -8.2537335344E+00
   -8.2276248006E+00   -8.2016802518E+00   -8.1758985905E+00   -8.1502782944E+00
   -8.1248177630E+00   -8.0995154739E+00   -8.0743700930E+00   -8.0493801769E+00
   -8.0245442096E+00   -7.9998607957E+00   -7.9753285967E+00   -7.9509462207E+00
   -7.9267121647E+00   -7.9026251423E+00   -7.8786838763E+00   -7.8548870396E+00
   -7.8312331704E+00   -7.8077210871E+00   -7.7843495745E+00   -7.7611173756E+00
   -7.7380230980E+00   -7.7150656350E+00   -7.6922438324E+00   -7.6695564996E+00
   -7.6470023375E+00   -7.6245802708E+00   -7.6022891954E+00   -7.5801279738E+00
   -7.5580953685E+00   -7.5361903345E+00   -7.5144118306E+00   -7.4927587722E+00
   -7.4712299957E+00   -7.4498244651E+00   -7.4285412006E+00   -7.4073791657E+00
   -7.3863372697E+00   -7.3654144715E+00   -7.3446098559E+00   -7.3239224312E+00
   -7.3033511812E+00   -7.2828950468E+00   -7.2625531792E+00   -7.2423246297E+00
   -7.2222084498E+00   -7.2022035760E+00   -7.1823092027E+00   -7.1625244336E+00
   -7.1428483622E+00   -7.1232800017E+00   -7.1038184978E+00   -7.0844630412E+00
   -7.0652127687E+00   -7.0460667865E+00   -7.0270241711E+00   -7.0080842010E+00
   -6.9892460546E+00   -6.9705089106E+00   -6.9518718506E+00   -6.9333341552E+00
   -6.9148950648E+00   -6.8965537956E+00   -6.8783095237E+00   -6.8601614352E+00
   -6.8421088639E+00   -6.8241510626E+00   -6.8062872837E+00   -6.7885166872E+00
   -6.7708386207E+00   -6.7532523961E+00   -6.7357573007E+00   -6.7183525977E+00
   -6.7010375146E+00   -6.6838114620E+00   -6.6666737603E+00   -6.6496237299E+00
   -6.6326606273E+00   -6.6157838046E+00   -6.5989926633E+00   -6.5822865552E+00
   -6.5656648323E+00   -6.5491267524E+00   -6.5326717725E+00   -6.5162992893E+00
   -6.5000086849E+00   -6.4837993287E+00   -6.4676705249E+00   -6.4516217775E+00
   -6.4356524972E+00   -6.4197620948E+00   -6.4039499487E+00   -6.3882154371E+00
   -6.3725580708E+00   -6.3569772881E+00   -6.3414725270E+00   -6.3260431805E+00
   -6.3106886847E+00   -6.2954085620E+00   -6.2802022766E+00   -6.2650692927E+00
   -6.2500090231E+00   -6.2350209463E+00   -6.2201046009E+00   -6.2052594760E+00
   -6.1904850609E+00   -6.1757807930E+00   -6.1611461781E+00   -6.1465807761E+00
   -6.1320840999E+00   -6.1176556624E+00   -6.1032949305E+00   -6.0890014233E+00
   -6.0747747266E+00   -6.0606143759E+00   -6.0465199069E+00   -6.0324908200E+00
   -6.0185266346E+00   -6.0046269668E+00   -5.9907913737E+00   -5.9770194125E+00
   -5.9633106215E+00   -5.9496645085E+00   -5.9360807232E+00   -5.9225588436E+00
   -5.9090984473E+00   -5.8956991122E+00   -5.8823603305E+00   -5.8690817820E+00
   -5.8558630663E+00   -5.8427037810E+00   -5.8296035234E+00   -5.8165618315E+00
   -5.8035783467E+00   -5.7906527130E+00   -5.7777845466E+00   -5.7649734638E+00
   -5.7522190527E+00   -5.7395209055E+00   -5.7268787138E+00   -5.7142921114E+00
   -5.7017607326E+00   -5.6892842112E+00   -5.6768621068E+00   -5.6644941352E+00
   -5.6521799553E+00   -5.6399192183E+00   -5.6277115752E+00   -5.6155566426E+00
   -5.6034540653E+00   -5.5914035580E+00   -5.5794047879E+00   -5.5674574224E+00
   -5.5555611289E+00   -5.5437155061E+00   -5.5319202925E+00   -5.5201751815E+00
   -5.5084798558E+00   -5.4968339984E+00   -5.4852372722E+00   -5.4736893256E+00
   -5.4621899138E+00   -5.4507387345E+00   -5.4393354852E+00   -5.4279798636E+00
   -5.4166715241E+00   -5.4054101821E+00   -5.3941955824E+00   -5.3830274366E+00
   -5.3719054564E+00   -5.3608293534E+00   -5.3497987796E+00   -5.3388135031E+00
   -5.3278732630E+00   -5.3169777845E+00   -5.3061267926E+00   -5.2953200125E+00
   -5.2845570986E+00   -5.2738378586E+00   -5.2631620309E+00   -5.2525293535E+00
   -5.2419395642E+00   -5.2313923940E+00   -5.2208875260E+00   -5.2104247732E+00
   -5.2000038856E+00   -5.1896246134E+00   -5.1792867067E+00   -5.1689899061E+00
   -5.1587339138E+00   -5.1485185504E+00   -5.1383435776E+00   -5.1282087574E+00
   -5.1181138513E+00   -5.1080586143E+00   -5.0980427562E+00   -5.0880661097E+00
   -5.0781284476E+00   -5.0682295428E+00   -5.0583691681E+00   -5.0485470965E+00
   -5.0387630362E+00   -5.0290168347E+00   -5.0193082758E+00   -5.0096371429E+00
   -5.0000032194E+00   -4.9904062889E+00   -4.9808460826E+00   -4.9713224322E+00
   -4.9618351431E+00   -4.9523840090E+00   -4.9429688234E+00   -4.9335893798E+00
   -4.9242454364E+00   -4.9149367997E+00   -4.9056633004E+00   -4.8964247418E+00
   -4.8872209270E+00   -4.8780516592E+00   -4.8689167271E+00   -4.8598159034E+00
   -4.8507490473E+00   -4.8417159712E+00   -4.8327164872E+00   -4.8237504078E+00
   -4.8148175454E+00   -4.8059176630E+00   -4.7970506187E+00   -4.7882162441E+00
   -4.7794143603E+00   -4.7706447884E+00   -4.7619073494E+00   -4.7532018442E+00
   -4.7445280784E+00   -4.7358859199E+00   -4.7272751981E+00   -4.7186957423E+00
   -4.7101473820E+00   -4.7016299465E+00   -4.6931432207E+00   -4.6846870723E+00
   -4.6762613511E+00   -4.6678658944E+00   -4.6595005396E+00   -4.6511651240E+00
   -4.6428594768E+00   -4.6345833973E+00   -4.6263367777E+00   -4.6181194629E+00
   -4.6099312979E+00   -4.6017721275E+00   -4.5936417969E+00   -4.5855401273E+00
   -4.5774669590E+00   -4.5694221754E+00   -4.5614056285E+00   -4.5534171707E+00
   -4.5454566539E+00   -4.5375239305E+00   -4.5296188191E+00   -4.5217411897E+00
   -4.5138909211E+00   -4.5060678725E+00   -4.4982719028E+00   -4.4905028713E+00
   -4.4827606368E+00   -4.4750450197E+00   -4.4673559094E+00   -4.4596931848E+00
   -4.4520567113E+00   -4.4444463548E+00   -4.4368619807E+00   -4.4293034548E+00
   -4.4217706029E+00   -4.4142633241E+00   -4.4067815014E+00   -4.3993250066E+00
   -4.3918937116E+00   -4.3844874882E+00   -4.3771062085E+00   -4.3697497076E+00
   -4.3624178854E+00   -4.3551106326E+00   -4.3478278271E+00   -4.3405693468E+00
   -4.3333350696E+00   -4.3261248732E+00
  </PP_LOCAL>
 <PP_NONLOCAL>
   <PP_BETA.1
       type="real"
       size=" 602"
       columns="4"
       index="1"
       angular_momentum="0"
       cutoff_radius_index=" 368"
       cutoff_radius="    3.6700000000E+00" >
    0.0000000000E+00    1.5201103444E-02    3.0407067106E-02    4.5622724940E-02
    6.0852858437E-02    7.6102170560E-02    9.1375259876E-02    1.0667659496E-01
    1.2201048912E-01    1.3738107553E-01    1.5279228279E-01    1.6824781104E-01
    1.8375110866E-01    1.9930534957E-01    2.1491341126E-01    2.3057785358E-01
    2.4630089831E-01    2.6208440965E-01    2.7792987556E-01    2.9383839011E-01
    3.0981063684E-01    3.2584687315E-01    3.4194691580E-01    3.5811012758E-01
    3.7433540507E-01    3.9062116776E-01    4.0696534820E-01    4.2336538362E-01
    4.3981820874E-01    4.5632024991E-01    4.7286742056E-01    4.8945511811E-01
    5.0607822211E-01    5.2273109388E-01    5.3940757737E-01    5.5610100165E-01
    5.7280418454E-01    5.8950943778E-01    6.0620857351E-01    6.2289291216E-01
    6.3955329170E-01    6.5618007812E-01    6.7276317743E-01    6.8929204877E-01
    7.0575571890E-01    7.2214279794E-01    7.3844149631E-01    7.5463964280E-01
    7.7072470392E-01    7.8668380360E-01    8.0250374587E-01    8.1817103681E-01
    8.3367190661E-01    8.4899233596E-01    8.6411808098E-01    8.7903469576E-01
    8.9372756678E-01    9.0818192910E-01    9.2238290850E-01    9.3631553472E-01
    9.4996478569E-01    9.6331560533E-01    9.7635293860E-01    9.8906176608E-01
    1.0014271229E+00    1.0134341412E+00    1.0250680785E+00    1.0363143429E+00
    1.0471585234E+00    1.0575864360E+00    1.0675841380E+00    1.0771379635E+00
    1.0862345516E+00    1.0948608788E+00    1.1030042939E+00    1.1106525370E+00
    1.1177937714E+00    1.1244166111E+00    1.1305101481E+00    1.1360639780E+00
    1.1410682259E+00    1.1455135703E+00    1.1493912668E+00    1.1526931703E+00