<UPF version="2.0.1">
  <PP_INFO>

 This pseudopotential file has been produced using the code
 ONCVPSP  (Optimized Norm-Conservinng Vanderbilt PSeudopotential)
 scalar-relativistic version 2.1.1, 03/26/2014 by D. R. Hamann
 The code is available through a link at URL www.mat-simresearch.com.
 Documentation with the package provides a full discription of the
 input data below.


 While it is not required under the terms of the GNU GPL, it is
 suggested that you cite D. R. Hamann, Phys. Rev. B 88, 085117 (2013)
 in any publication using these pseudopotentials.


 Copyright 2015 The Regents of the University of California
 
 This work is licensed under the Creative Commons Attribution-ShareAlike 
 4.0 International License. To view a copy of this license, visit 
 http://creativecommons.org/licenses/by-sa/4.0/ or send a letter to 
 Creative Commons, PO Box 1866, Mountain View, CA 94042, USA.
 
 This pseudopotential is part of the Schlipf-Gygi norm-conserving 
 pseudopotential library. Its construction parameters were tuned to 
 reproduce materials of a training set with very high accuracy and 
 should be suitable as a general purpose pseudopotential to treat a 
 variety of different compounds. For details of the construction and 
 testing of the pseudopotential please refer to:
 
 [insert reference to paper here]
 
 We kindly ask that you include this reference in all publications 
 associated to this pseudopotential.


    <PP_INPUTFILE>
# ATOM AND REFERENCE CONFIGURATION
# atsym  z    nc    nv    iexc   psfile
  V 23.00     3     4     4      upf
#
#   n    l    f        energy (Ha)
    1    0    2.00
    2    0    2.00
    2    1    6.00
    3    0    2.00
    3    1    6.00
    4    0    2.00
    3    2    3.00
#
# PSEUDOPOTENTIAL AND OPTIMIZATION
# lmax
    2
#
#   l,   rc,     ep,   ncon, nbas, qcut
    0   1.72984  -2.58111    5    8   6.72517
    1   1.97239  -1.61849    5    8   8.52961
    2   2.02001  -0.18980    5    8   7.57582
#
# LOCAL POTENTIAL
# lloc, lpopt,  rc(5),   dvloc0
    4    5   1.70933      0.00000
#
# VANDERBILT-KLEINMAN-BYLANDER PROJECTORs
# l, nproj, debl
    0    2   2.40830
    1    2   2.30431
    2    2   1.10604
#
# MODEL CORE CHARGE
# icmod, fcfact
    0   0.00000
#
# LOG DERIVATIVE ANALYSIS
# epsh1, epsh2, depsh
   -5.00    3.00    0.02
#
# OUTPUT GRID
# rlmax, drl
    6.00    0.01
#
# TEST CONFIGURATIONS
# ncnf
    0
# nvcnf
#   n    l    f
    </PP_INPUTFILE>
  </PP_INFO>
  <!--                               -->
  <!-- END OF HUMAN READABLE SECTION -->
  <!--                               -->
    <PP_HEADER
       generated="Generated using ONCVPSP code by D. R. Hamann"
       author="Martin Schlipf and Francois Gygi"
       date="150105"
       comment=""
       element="V "
       pseudo_type="NC"
       relativistic="scalar"
       is_ultrasoft="F"
       is_paw="F"
       is_coulomb="F"
       has_so="F"
       has_wfc="F"
       has_gipaw="F"
       core_correction="F"
       functional="PBE"
       z_valence="   13.00"
       total_psenergy="  -7.08112384976E+01"
       rho_cutoff="   6.01000000000E+00"
       l_max="2"
       l_local="-1"
       mesh_size="   602"
       number_of_wfc="0"
       number_of_proj="6"/>
 <PP_MESH>
   <PP_R type="real"  size=" 602" columns="8">
    0.0000    0.0100    0.0200    0.0300    0.0400    0.0500    0.0600    0.0700
    0.0800    0.0900    0.1000    0.1100    0.1200    0.1300    0.1400    0.1500
    0.1600    0.1700    0.1800    0.1900    0.2000    0.2100    0.2200    0.2300
    0.2400    0.2500    0.2600    0.2700    0.2800    0.2900    0.3000    0.3100
    0.3200    0.3300    0.3400    0.3500    0.3600    0.3700    0.3800    0.3900
    0.4000    0.4100    0.4200    0.4300    0.4400    0.4500    0.4600    0.4700
    0.4800    0.4900    0.5000    0.5100    0.5200    0.5300    0.5400    0.5500
    0.5600    0.5700    0.5800    0.5900    0.6000    0.6100    0.6200    0.6300
    0.6400    0.6500    0.6600    0.6700    0.6800    0.6900    0.7000    0.7100
    0.7200    0.7300    0.7400    0.7500    0.7600    0.7700    0.7800    0.7900
    0.8000    0.8100    0.8200    0.8300    0.8400    0.8500    0.8600    0.8700
    0.8800    0.8900    0.9000    0.9100    0.9200    0.9300    0.9400    0.9500
    0.9600    0.9700    0.9800    0.9900    1.0000    1.0100    1.0200    1.0300
    1.0400    1.0500    1.0600    1.0700    1.0800    1.0900    1.1000    1.1100
    1.1200    1.1300    1.1400    1.1500    1.1600    1.1700    1.1800    1.1900
    1.2000    1.2100    1.2200    1.2300    1.2400    1.2500    1.2600    1.2700
    1.2800    1.2900    1.3000    1.3100    1.3200    1.3300    1.3400    1.3500
    1.3600    1.3700    1.3800    1.3900    1.4000    1.4100    1.4200    1.4300
    1.4400    1.4500    1.4600    1.4700    1.4800    1.4900    1.5000    1.5100
    1.5200    1.5300    1.5400    1.5500    1.5600    1.5700    1.5800    1.5900
    1.6000    1.6100    1.6200    1.6300    1.6400    1.6500    1.6600    1.6700
    1.6800    1.6900    1.7000    1.7100    1.7200    1.7300    1.7400    1.7500
    1.7600    1.7700    1.7800    1.7900    1.8000    1.8100    1.8200    1.8300
    1.8400    1.8500    1.8600    1.8700    1.8800    1.8900    1.9000    1.9100
    1.9200    1.9300    1.9400    1.9500    1.9600    1.9700    1.9800    1.9900
    2.0000    2.0100    2.0200    2.0300    2.0400    2.0500    2.0600    2.0700
    2.0800    2.0900    2.1000    2.1100    2.1200    2.1300    2.1400    2.1500
    2.1600    2.1700    2.1800    2.1900    2.2000    2.2100    2.2200    2.2300
    2.2400    2.2500    2.2600    2.2700    2.2800    2.2900    2.3000    2.3100
    2.3200    2.3300    2.3400    2.3500    2.3600    2.3700    2.3800    2.3900
    2.4000    2.4100    2.4200    2.4300    2.4400    2.4500    2.4600    2.4700
    2.4800    2.4900    2.5000    2.5100    2.5200    2.5300    2.5400    2.5500
    2.5600    2.5700    2.5800    2.5900    2.6000    2.6100    2.6200    2.6300
    2.6400    2.6500    2.6600    2.6700    2.6800    2.6900    2.7000    2.7100
    2.7200    2.7300    2.7400    2.7500    2.7600    2.7700    2.7800    2.7900
    2.8000    2.8100    2.8200    2.8300    2.8400    2.8500    2.8600    2.8700
    2.8800    2.8900    2.9000    2.9100    2.9200    2.9300    2.9400    2.9500
    2.9600    2.9700    2.9800    2.9900    3.0000    3.0100    3.0200    3.0300
    3.0400    3.0500    3.0600    3.0700    3.0800    3.0900    3.1000    3.1100
    3.1200    3.1300    3.1400    3.1500    3.1600    3.1700    3.1800    3.1900
    3.2000    3.2100    3.2200    3.2300    3.2400    3.2500    3.2600    3.2700
    3.2800    3.2900    3.3000    3.3100    3.3200    3.3300    3.3400    3.3500
    3.3600    3.3700    3.3800    3.3900    3.4000    3.4100    3.4200    3.4300
    3.4400    3.4500    3.4600    3.4700    3.4800    3.4900    3.5000    3.5100
    3.5200    3.5300    3.5400    3.5500    3.5600    3.5700    3.5800    3.5900
    3.6000    3.6100    3.6200    3.6300    3.6400    3.6500    3.6600    3.6700
    3.6800    3.6900    3.7000    3.7100    3.7200    3.7300    3.7400    3.7500
    3.7600    3.7700    3.7800    3.7900    3.8000    3.8100    3.8200    3.8300
    3.8400    3.8500    3.8600    3.8700    3.8800    3.8900    3.9000    3.9100
    3.9200    3.9300    3.9400    3.9500    3.9600    3.9700    3.9800    3.9900
    4.0000    4.0100    4.0200    4.0300    4.0400    4.0500    4.0600    4.0700
    4.0800    4.0900    4.1000    4.1100    4.1200    4.1300    4.1400    4.1500
    4.1600    4.1700    4.1800    4.1900    4.2000    4.2100    4.2200    4.2300
    4.2400    4.2500    4.2600    4.2700    4.2800    4.2900    4.3000    4.3100
    4.3200    4.3300    4.3400    4.3500    4.3600    4.3700    4.3800    4.3900
    4.4000    4.4100    4.4200    4.4300    4.4400    4.4500    4.4600    4.4700
    4.4800    4.4900    4.5000    4.5100    4.5200    4.5300    4.5400    4.5500
    4.5600    4.5700    4.5800    4.5900    4.6000    4.6100    4.6200    4.6300
    4.6400    4.6500    4.6600    4.6700    4.6800    4.6900    4.7000    4.7100
    4.7200    4.7300    4.7400    4.7500    4.7600    4.7700    4.7800    4.7900
    4.8000    4.8100    4.8200    4.8300    4.8400    4.8500    4.8600    4.8700
    4.8800    4.8900    4.9000    4.9100    4.9200    4.9300    4.9400    4.9500
    4.9600    4.9700    4.9800    4.9900    5.0000    5.0100    5.0200    5.0300
    5.0400    5.0500    5.0600    5.0700    5.0800    5.0900    5.1000    5.1100
    5.1200    5.1300    5.1400    5.1500    5.1600    5.1700    5.1800    5.1900
    5.2000    5.2100    5.2200    5.2300    5.2400    5.2500    5.2600    5.2700
    5.2800    5.2900    5.3000    5.3100    5.3200    5.3300    5.3400    5.3500
    5.3600    5.3700    5.3800    5.3900    5.4000    5.4100    5.4200    5.4300
    5.4400    5.4500    5.4600    5.4700    5.4800    5.4900    5.5000    5.5100
    5.5200    5.5300    5.5400    5.5500    5.5600    5.5700    5.5800    5.5900
    5.6000    5.6100    5.6200    5.6300    5.6400    5.6500    5.6600    5.6700
    5.6800    5.6900    5.7000    5.7100    5.7200    5.7300    5.7400    5.7500
    5.7600    5.7700    5.7800    5.7900    5.8000    5.8100    5.8200    5.8300
    5.8400    5.8500    5.8600    5.8700    5.8800    5.8900    5.9000    5.9100
    5.9200    5.9300    5.9400    5.9500    5.9600    5.9700    5.9800    5.9900
    6.0000    6.0100
   </PP_R>
   <PP_RAB type="real"  size=" 602" columns="8">
    0.0100    0.0100    0.0100    0.0100    0.0100    0.0100    0.0100    0.0100
    0.0100    0.0100    0.0100    0.0100    0.0100    0.0100    0.0100    0.0100
    0.0100    0.0100    0.0100    0.0100    0.0100    0.0100    0.0100    0.0100
    0.0100    0.0100    0.0100    0.0100    0.0100    0.0100    0.0100    0.0100
    0.0100    0.0100    0.0100    0.0100    0.0100    0.0100    0.0100    0.0100
    0.0100    0.0100    0.0100    0.0100    0.0100    0.0100    0.0100    0.0100
    0.0100    0.0100    0.0100    0.0100    0.0100    0.0100    0.0100    0.0100
    0.0100    0.0100    0.0100    0.0100    0.0100    0.0100    0.0100    0.0100
    0.0100    0.0100    0.0100    0.0100    0.0100    0.0100    0.0100    0.0100
    0.0100    0.0100    0.0100    0.0100    0.0100    0.0100    0.0100    0.0100
    0.0100    0.0100    0.0100    0.0100    0.0100    0.0100    0.0100    0.0100
    0.0100    0.0100    0.0100    0.0100    0.0100    0.0100    0.0100    0.0100
    0.0100    0.0100    0.0100    0.0100    0.0100    0.0100    0.0100    0.0100
    0.0100    0.0100    0.0100    0.0100    0.0100    0.0100    0.0100    0.0100
    0.0100    0.0100    0.0100    0.0100    0.0100    0.0100    0.0100    0.0100
    0.0100    0.0100    0.0100    0.0100    0.0100    0.0100    0.0100    0.0100
    0.0100    0.0100    0.0100    0.0100    0.0100    0.0100    0.0100    0.0100
    0.0100    0.0100    0.0100    0.0100    0.0100    0.0100    0.0100    0.0100
    0.0100    0.0100    0.0100    0.0100    0.0100    0.0100    0.0100    0.0100
    0.0100    0.0100    0.0100    0.0100    0.0100    0.0100    0.0100    0.0100
    0.0100    0.0100    0.0100    0.0100    0.0100    0.0100    0.0100    0.0100
    0.0100    0.0100    0.0100    0.0100    0.0100    0.0100    0.0100    0.0100
    0.0100    0.0100    0.0100    0.0100    0.0100    0.0100    0.0100    0.0100
    0.0100    0.0100    0.0100    0.0100    0.0100    0.0100    0.0100    0.0100
    0.0100    0.0100    0.0100    0.0100    0.0100    0.0100    0.0100    0.0100
    0.0100    0.0100    0.0100    0.0100    0.0100    0.0100    0.0100    0.0100
    0.0100    0.0100    0.0100    0.0100    0.0100    0.0100    0.0100    0.0100
    0.0100    0.0100    0.0100    0.0100    0.0100    0.0100    0.0100    0.0100
    0.0100    0.0100    0.0100    0.0100    0.0100    0.0100    0.0100    0.0100
    0.0100    0.0100    0.0100    0.0100    0.0100    0.0100    0.0100    0.0100
    0.0100    0.0100    0.0100    0.0100    0.0100    0.0100    0.0100    0.0100
    0.0100    0.0100    0.0100    0.0100    0.0100    0.0100    0.0100    0.0100
    0.0100    0.0100    0.0100    0.0100    0.0100    0.0100    0.0100    0.0100
    0.0100    0.0100    0.0100    0.0100    0.0100    0.0100    0.0100    0.0100
    0.0100    0.0100    0.0100    0.0100    0.0100    0.0100    0.0100    0.0100
    0.0100    0.0100    0.0100    0.0100    0.0100    0.0100    0.0100    0.0100
    0.0100    0.0100    0.0100    0.0100    0.0100    0.0100    0.0100    0.0100
    0.0100    0.0100    0.0100    0.0100    0.0100    0.0100    0.0100    0.0100
    0.0100    0.0100    0.0100    0.0100    0.0100    0.0100    0.0100    0.0100
    0.0100    0.0100    0.0100    0.0100    0.0100    0.0100    0.0100    0.0100
    0.0100    0.0100    0.0100    0.0100    0.0100    0.0100    0.0100    0.0100
    0.0100    0.0100    0.0100    0.0100    0.0100    0.0100    0.0100    0.0100
    0.0100    0.0100    0.0100    0.0100    0.0100    0.0100    0.0100    0.0100
    0.0100    0.0100    0.0100    0.0100    0.0100    0.0100    0.0100    0.0100
    0.0100    0.0100    0.0100    0.0100    0.0100    0.0100    0.0100    0.0100
    0.0100    0.0100    0.0100    0.0100    0.0100    0.0100    0.0100    0.0100
    0.0100    0.0100    0.0100    0.0100    0.0100    0.0100    0.0100    0.0100
    0.0100    0.0100    0.0100    0.0100    0.0100    0.0100    0.0100    0.0100
    0.0100    0.0100    0.0100    0.0100    0.0100    0.0100    0.0100    0.0100
    0.0100    0.0100    0.0100    0.0100    0.0100    0.0100    0.0100    0.0100
    0.0100    0.0100    0.0100    0.0100    0.0100    0.0100    0.0100    0.0100
    0.0100    0.0100    0.0100    0.0100    0.0100    0.0100    0.0100    0.0100
    0.0100    0.0100    0.0100    0.0100    0.0100    0.0100    0.0100    0.0100
    0.0100    0.0100    0.0100    0.0100    0.0100    0.0100    0.0100    0.0100
    0.0100    0.0100    0.0100    0.0100    0.0100    0.0100    0.0100    0.0100
    0.0100    0.0100    0.0100    0.0100    0.0100    0.0100    0.0100    0.0100
    0.0100    0.0100    0.0100    0.0100    0.0100    0.0100    0.0100    0.0100
    0.0100    0.0100    0.0100    0.0100    0.0100    0.0100    0.0100    0.0100
    0.0100    0.0100    0.0100    0.0100    0.0100    0.0100    0.0100    0.0100
    0.0100    0.0100    0.0100    0.0100    0.0100    0.0100    0.0100    0.0100
    0.0100    0.0100    0.0100    0.0100    0.0100    0.0100    0.0100    0.0100
    0.0100    0.0100    0.0100    0.0100    0.0100    0.0100    0.0100    0.0100
    0.0100    0.0100    0.0100    0.0100    0.0100    0.0100    0.0100    0.0100
    0.0100    0.0100    0.0100    0.0100    0.0100    0.0100    0.0100    0.0100
    0.0100    0.0100    0.0100    0.0100    0.0100    0.0100    0.0100    0.0100
    0.0100    0.0100    0.0100    0.0100    0.0100    0.0100    0.0100    0.0100
    0.0100    0.0100    0.0100    0.0100    0.0100    0.0100    0.0100    0.0100
    0.0100    0.0100    0.0100    0.0100    0.0100    0.0100    0.0100    0.0100
    0.0100    0.0100    0.0100    0.0100    0.0100    0.0100    0.0100    0.0100
    0.0100    0.0100    0.0100    0.0100    0.0100    0.0100    0.0100    0.0100
    0.0100    0.0100    0.0100    0.0100    0.0100    0.0100    0.0100    0.0100
    0.0100    0.0100    0.0100    0.0100    0.0100    0.0100    0.0100    0.0100
    0.0100    0.0100    0.0100    0.0100    0.0100    0.0100    0.0100    0.0100
    0.0100    0.0100    0.0100    0.0100    0.0100    0.0100    0.0100    0.0100
    0.0100    0.0100    0.0100    0.0100    0.0100    0.0100    0.0100    0.0100
    0.0100    0.0100
   </PP_RAB>
 </PP_MESH>
  <PP_LOCAL type="real"  size=" 602" columns="4">
   -3.4796913781E+01   -3.4811611832E+01   -3.4858457832E+01   -3.4923400868E+01
   -3.4992390023E+01   -3.5053345234E+01   -3.5098442588E+01   -3.5124229379E+01
   -3.5130533142E+01   -3.5119114873E+01   -3.5092577669E+01   -3.5053662478E+01
   -3.5004873604E+01   -3.4948326607E+01   -3.4885724292E+01   -3.4818395444E+01
   -3.4747357265E+01   -3.4673380318E+01   -3.4597046466E+01   -3.4518796226E+01
   -3.4438965498E+01   -3.4357812963E+01   -3.4275539913E+01   -3.4192304325E+01
   -3.4108230644E+01   -3.4023416541E+01   -3.3937937588E+01   -3.3851850484E+01
   -3.3765195350E+01   -3.3677997411E+01   -3.3590268278E+01   -3.3502006962E+01
   -3.3413200719E+01   -3.3323825770E+01   -3.3233847983E+01   -3.3143223429E+01
   -3.3051899024E+01   -3.2959813052E+01   -3.2866895822E+01   -3.2773070330E+01
   -3.2678252979E+01   -3.2582354445E+01   -3.2485280643E+01   -3.2386933821E+01
   -3.2287213797E+01   -3.2186019326E+01   -3.2083249582E+01   -3.1978805720E+01
   -3.1872592534E+01   -3.1764520083E+01   -3.1654505281E+01   -3.1542473357E+01
   -3.1428359399E+01   -3.1312109302E+01   -3.1193680798E+01   -3.1073044255E+01
   -3.0950182687E+01   -3.0825092415E+01   -3.0697782172E+01   -3.0568273350E+01
   -3.0436598684E+01   -3.0302801746E+01   -3.0166935801E+01   -3.0029062395E+01
   -2.9889250611E+01   -2.9747575439E+01   -2.9604116639E+01   -2.9458957747E+01
   -2.9312184853E+01   -2.9163885662E+01   -2.9014148657E+01   -2.8863062362E+01
   -2.8710714707E+01   -2.8557192538E+01   -2.8402581229E+01   -2.8246964380E+01
   -2.8090423620E+01   -2.7933038448E+01   -2.7774886149E+01   -2.7616041801E+01
   -2.7456578271E+01   -2.7296566256E+01   -2.7136074342E+01   -2.6975169078E+01
   -2.6813915050E+01   -2.6652374965E+01   -2.6490609724E+01   -2.6328678496E+01
   -2.6166638781E+01   -2.6004546465E+01   -2.5842455866E+01   -2.5680419771E+01
   -2.5518489459E+01   -2.5356714733E+01   -2.5195143928E+01   -2.5033823859E+01
   -2.4872799879E+01   -2.4712115854E+01   -2.4551814144E+01   -2.4391935586E+01
   -2.4232519484E+01   -2.4073603642E+01   -2.3915224211E+01   -2.3757415725E+01
   -2.3600211145E+01   -2.3443641816E+01   -2.3287737509E+01   -2.3132526399E+01
   -2.2978034858E+01   -2.2824287754E+01   -2.2671308382E+01   -2.2519118639E+01
   -2.2367738625E+01   -2.2217187030E+01   -2.2067481178E+01   -2.1918637211E+01
   -2.1770669643E+01   -2.1623591890E+01   -2.1477416340E+01   -2.1332154375E+01
   -2.1187816177E+01   -2.1044411263E+01   -2.0901948526E+01   -2.0760435946E+01
   -2.0619881107E+01   -2.0480291227E+01   -2.0341673045E+01   -2.0204033121E+01
   -2.0067377877E+01   -1.9931713597E+01   -1.9797046605E+01   -1.9663383218E+01
   -1.9530729897E+01   -1.9399093234E+01   -1.9268479896E+01   -1.9138896859E+01
   -1.9010351161E+01   -1.8882850042E+01   -1.8756400917E+01   -1.8631011245E+01
   -1.8506688639E+01   -1.8383440679E+01   -1.8261274986E+01   -1.8140198992E+01
   -1.8020220166E+01   -1.7901345548E+01   -1.7783582063E+01   -1.7666936274E+01
   -1.7551414153E+01   -1.7437021640E+01   -1.7323763449E+01   -1.7211644566E+01
   -1.7100668421E+01   -1.6990838510E+01   -1.6882157073E+01   -1.6774625785E+01
   -1.6668245590E+01   -1.6563016151E+01   -1.6458937010E+01   -1.6356005691E+01
   -1.6254220221E+01   -1.6153575917E+01   -1.6054069184E+01   -1.5955693124E+01
   -1.5858442301E+01   -1.5762307716E+01   -1.5667281886E+01   -1.5573353720E+01
   -1.5480513640E+01   -1.5388748319E+01   -1.5298046039E+01   -1.5208391216E+01
   -1.5119769612E+01   -1.5032165351E+01   -1.4945562762E+01   -1.4859947101E+01
   -1.4775303070E+01   -1.4691616496E+01   -1.4608872717E+01   -1.4527057940E+01
   -1.4446158148E+01   -1.4366159757E+01   -1.4287049132E+01   -1.4208812898E+01
   -1.4131437831E+01   -1.4054910720E+01   -1.3979218595E+01   -1.3904348370E+01
   -1.3830287270E+01   -1.3757022324E+01   -1.3684540882E+01   -1.3612830130E+01
   -1.3541877489E+01   -1.3471670346E+01   -1.3402196189E+01   -1.3333442751E+01
   -1.3265397476E+01   -1.3198048747E+01   -1.3131384149E+01   -1.3065392702E+01
   -1.3000063115E+01   -1.2935384483E+01   -1.2871347179E+01   -1.2807940335E+01
   -1.2745155416E+01   -1.2682982867E+01   -1.2621413840E+01   -1.2560439857E+01
   -1.2500052069E+01   -1.2440242384E+01   -1.2381002195E+01   -1.2322323528E+01
   -1.2264198562E+01   -1.2206619162E+01   -1.2149578069E+01   -1.2093067512E+01
   -1.2037080192E+01   -1.1981609054E+01   -1.1926646580E+01   -1.1872186216E+01
   -1.1818220945E+01   -1.1764743963E+01   -1.1711748927E+01   -1.1659229031E+01
   -1.1607178131E+01   -1.1555590025E+01   -1.1504458257E+01   -1.1453777148E+01
   -1.1403540607E+01   -1.1353742735E+01   -1.1304378046E+01   -1.1255440651E+01
   -1.1206925156E+01   -1.1158826252E+01   -1.1111138262E+01   -1.1063856238E+01
   -1.1016975011E+01   -1.0970489230E+01   -1.0924394227E+01   -1.0878684993E+01
   -1.0833356553E+01   -1.0788404420E+01   -1.0743823781E+01   -1.0699609990E+01
   -1.0655758742E+01   -1.0612265415E+01   -1.0569125655E+01   -1.0526335334E+01
   -1.0483890026E+01   -1.0441785627E+01   -1.0400018188E+01   -1.0358583477E+01
   -1.0317477603E+01   -1.0276696797E+01   -1.0236237020E+01   -1.0196094562E+01
   -1.0156265832E+01   -1.0116746987E+01   -1.0077534462E+01   -1.0038624848E+01
   -1.0000014494E+01   -9.9616999539E+00   -9.9236779977E+00   -9.8859451695E+00
   -9.8484981126E+00   -9.8113337761E+00   -9.7744489001E+00   -9.7378401912E+00
   -9.7015047766E+00   -9.6654395927E+00   -9.6296413879E+00   -9.5941074635E+00
   -9.5588349084E+00   -9.5238206290E+00   -9.4890619610E+00   -9.4545561732E+00
   -9.4203003661E+00   -9.3862918542E+00   -9.3525280947E+00   -9.3190063866E+00
   -9.2857240039E+00   -9.2526785868E+00   -9.2198676124E+00   -9.1872883724E+00
   -9.1549386106E+00   -9.1228159445E+00   -9.0909178604E+00   -9.0592420140E+00
   -9.0277862156E+00   -8.9965481539E+00   -8.9655253824E+00   -8.9347158940E+00
   -8.9041175024E+00   -8.8737278973E+00   -8.8435450004E+00   -8.8135668049E+00
   -8.7837912042E+00   -8.7542159780E+00   -8.7248393065E+00   -8.6956592024E+00
   -8.6666735707E+00   -8.6378804971E+00   -8.6092781722E+00   -8.5808647013E+00
   -8.5526380166E+00   -8.5245964740E+00   -8.4967382737E+00   -8.4690615479E+00
   -8.4415644567E+00   -8.4142453993E+00   -8.3871026535E+00   -8.3601343814E+00
   -8.3333389638E+00   -8.3067148224E+00   -8.2802603151E+00   -8.2539736440E+00
   -8.2278533794E+00   -8.2018979693E+00   -8.1761058208E+00   -8.1504752664E+00
   -8.1250049533E+00   -8.0996933890E+00   -8.0745390229E+00   -8.0495403346E+00
   -8.0246960099E+00   -8.0000046257E+00   -7.9754646799E+00   -7.9510747750E+00
   -7.9268336391E+00   -7.9027399154E+00   -7.8787921554E+00   -7.8549890617E+00
   -7.8313294089E+00   -7.8078119035E+00   -7.7844351553E+00   -7.7611979450E+00
   -7.7380990987E+00   -7.7151373831E+00   -7.6923114706E+00   -7.6696201995E+00
   -7.6470624519E+00   -7.6246370520E+00   -7.6023427388E+00   -7.5801783888E+00
   -7.5581429448E+00   -7.5362352858E+00   -7.5144542212E+00   -7.4927986478E+00
   -7.4712675728E+00   -7.4498599276E+00   -7.4285745959E+00   -7.4074104783E+00
   -7.3863666497E+00   -7.3654420912E+00   -7.3446357650E+00   -7.3239465601E+00
   -7.3033736216E+00   -7.2829159782E+00   -7.2625726583E+00   -7.2423425733E+00
   -7.2222248930E+00   -7.2022187067E+00   -7.1823230881E+00   -7.1625370331E+00
   -7.1428596638E+00   -7.1232901516E+00   -7.1038276136E+00   -7.0844711350E+00
   -7.0652197774E+00   -7.0460727953E+00   -7.0270293467E+00   -7.0080885898E+00
   -6.9892495785E+00   -6.9705115872E+00   -6.9518738334E+00   -6.9333355146E+00
   -6.9148957798E+00   -6.8965538134E+00   -6.8783089251E+00   -6.8601603497E+00
   -6.8421073220E+00   -6.8241489729E+00   -6.8062846571E+00   -6.7885136595E+00
   -6.7708352506E+00   -6.7532486630E+00   -6.7357531356E+00   -6.7183480523E+00
   -6.7010327175E+00   -6.6838064355E+00   -6.6666684308E+00   -6.6496180753E+00
   -6.6326547404E+00   -6.6157777630E+00   -6.5989864763E+00   -6.5822801158E+00
   -6.5656581543E+00   -6.5491199597E+00   -6.5326648997E+00   -6.5162923083E+00
   -6.5000015196E+00   -6.4837920064E+00   -6.4676631659E+00   -6.4516143952E+00
   -6.4356450359E+00   -6.4197545031E+00   -6.4039422738E+00   -6.3882077731E+00
   -6.3725504265E+00   -6.3569695886E+00   -6.3414647388E+00   -6.3260353631E+00
   -6.3106809136E+00   -6.2954008423E+00   -6.2801945227E+00   -6.2650614818E+00
   -6.2500012200E+00   -6.2350132150E+00   -6.2200969442E+00   -6.2052518048E+00
   -6.1904773560E+00   -6.1757731179E+00   -6.1611385926E+00   -6.1465732818E+00
   -6.1320766106E+00   -6.1176481562E+00   -6.1032874635E+00   -6.0889940576E+00
   -6.0747674636E+00   -6.0606071384E+00   -6.0465126641E+00   -6.0324836148E+00
   -6.0185195376E+00   -6.0046199798E+00   -5.9907844345E+00   -5.9770124759E+00
   -5.9633037115E+00   -5.9496577095E+00   -5.9360740382E+00   -5.9225522312E+00
   -5.9090918429E+00   -5.8956925178E+00   -5.8823538443E+00   -5.8690754109E+00
   -5.8558567954E+00   -5.8426975220E+00   -5.8295972751E+00   -5.8165556622E+00
   -5.8035722910E+00   -5.7906467692E+00   -5.7777786365E+00   -5.7649675642E+00
   -5.7522131965E+00   -5.7395151593E+00   -5.7268730785E+00   -5.7142865459E+00
   -5.7017551777E+00   -5.6892786677E+00   -5.6768566592E+00   -5.6644887955E+00
   -5.6521747200E+00   -5.6399139994E+00   -5.6277063645E+00   -5.6155514798E+00
   -5.6034490053E+00   -5.5913986009E+00   -5.5793998921E+00   -5.5674525335E+00
   -5.5555562471E+00   -5.5437107087E+00   -5.5319155942E+00   -5.5201705793E+00
   -5.5084752745E+00   -5.4968294205E+00   -5.4852327210E+00   -5.4736848668E+00
   -5.4621855490E+00   -5.4507344440E+00   -5.4393311976E+00   -5.4279755770E+00
   -5.4166672874E+00   -5.4054060342E+00   -5.3941915226E+00   -5.3830234232E+00
   -5.3719014418E+00   -5.3608253378E+00   -5.3497948302E+00   -5.3388096381E+00
   -5.3278694806E+00   -5.3169740274E+00   -5.3061230311E+00   -5.2953162481E+00
   -5.2845534104E+00   -5.2738342502E+00   -5.2631584996E+00   -5.2525258331E+00
   -5.2419360368E+00   -5.2313888688E+00   -5.2208840738E+00   -5.2104213964E+00
   -5.2000005811E+00   -5.1896213117E+00   -5.1792833956E+00   -5.1689865976E+00
   -5.1587306743E+00   -5.1485153821E+00   -5.1383404776E+00   -5.1282056579E+00
   -5.1181107403E+00   -5.1080555010E+00   -5.0980397078E+00   -5.0880631287E+00
   -5.0781255314E+00   -5.0682266304E+00   -5.0583662424E+00   -5.0485441592E+00
   -5.0387601594E+00   -5.0290140216E+00   -5.0193055246E+00   -5.0096344040E+00
   -5.0000004659E+00   -4.9904035214E+00   -4.9808433595E+00   -4.9713197693E+00
   -4.9618325396E+00   -4.9523814314E+00   -4.9429662303E+00   -4.9335867707E+00
   -4.9242428513E+00   -4.9149342711E+00   -4.9056608288E+00   -4.8964223142E+00
   -4.8872184838E+00   -4.8780491983E+00   -4.8689142659E+00   -4.8598134948E+00
   -4.8507466932E+00   -4.8417136692E+00   -4.8327141844E+00   -4.8237480865E+00
   -4.8148152066E+00   -4.8059153617E+00   -4.7970483689E+00   -4.7882140455E+00
   -4.7794121888E+00   -4.7706425987E+00   -4.7619051403E+00   -4.7531996394E+00
   -4.7445259216E+00   -4.7358838125E+00   -4.7272731378E+00   -4.7186936768E+00
   -4.7101452964E+00   -4.7016278419E+00   -4.6931411469E+00   -4.6846850452E+00
   -4.6762593707E+00   -4.6678639455E+00   -4.6594985716E+00   -4.6511631353E+00
   -4.6428574780E+00   -4.6345814413E+00   -4.6263348668E+00   -4.6181175958E+00
   -4.6099294412E+00   -4.6017702504E+00   -4.5936398988E+00   -4.5855382353E+00
   -4.5774651088E+00   -4.5694203683E+00   -4.5614038626E+00   -4.5534153999E+00
   -4.5454548619E+00   -4.5375221176E+00   -4.5296170231E+00   -4.5217394341E+00
   -4.5138892067E+00   -4.5060661969E+00   -4.4982702126E+00   -4.4905011594E+00
   -4.4827589041E+00   -4.4750433095E+00   -4.4673542383E+00   -4.4596915530E+00
   -4.4520551164E+00   -4.4444447408E+00   -4.4368603448E+00   -4.4293017980E+00
   -4.4217689694E+00   -4.4142617281E+00   -4.4067799432E+00   -4.3993234837E+00
   -4.3918921698E+00   -4.3844859244E+00   -4.3771046236E+00   -4.3697481424E+00
   -4.3624163560E+00   -4.3551091395E+00   -4.3478263682E+00   -4.3405678739E+00
   -4.3333335746E+00   -4.3261233567E+00
  </PP_LOCAL>
 <PP_NONLOCAL>
   <PP_BETA.1
       type="real"
       size=" 602"
       columns="4"
       index="1"
       angular_momentum="0"
       cutoff_radius_index=" 206"
       cutoff_radius="    2.0500000000E+00" >
    0.0000000000E+00    3.0066750647E-02    6.0278517749E-02    9.0778295896E-02
    1.2170505533E-01    1.5319177810E-01    1.8536355162E-01    2.1833573815E-01
    2.5221223762E-01    2.8708386084E-01    3.2302682871E-01    3.6010141218E-01
    3.9835072633E-01    4.3779969041E-01    4.7845416475E-01    5.2030027253E-01
    5.6330391478E-01    6.0741048259E-01    6.5254477172E-01    6.9861110005E-01
    7.4549362848E-01    7.9305688322E-01    8.4114647581E-01    8.8959001480E-01
    9.3819820243E-01    9.8676610825E-01    1.0350746038E+00    1.0828919551E+00
    1.1299755533E+00    1.1760737671E+00    1.2209279072E+00    1.2642742772E+00
    1.3058463051E+00    1.3453767392E+00    1.3825998314E+00    1.4172536314E+00
    1.4490821428E+00    1.4778376298E+00    1.5032827088E+00    1.5251924684E+00
    1.5433565403E+00    1.5575810023E+00    1.5676901903E+00    1.5735283923E+00
    1.5749613886E+00    1.5718778331E+00    1.5641904521E+00    1.5518370620E+00
    1.5347814798E+00    1.5130140781E+00    1.4865522192E+00    1.4554404470E+00
    1.4197506797E+00    1.3795817518E+00    1.3350591473E+00    1.2863344081E+00
    1.2335841480E+00    1.1770092584E+00    1.1168334883E+00    1.0533022096E+00
    9.8668080056E-01    9.1725295071E-01    8.4531878449E-01    7.7119309604E-01
    6.9520288914E-01    6.1768552163E-01    5.3898660507E-01    4.5945720108E-01
    3.7945184585E-01    2.9932622471E-01    2.1943501904E-01    1.4012895216E-01
    6.1752949868E-02   -1.5356050080E-02   -9.0871312490E-02   -1.6447836162E-01
   -2.3587679754E-01   -3.0478238368E-01   -3.7092877448E-01   -4.3406873167E-01
   -4.9397565160E-01   -5.5044477721E-01   -6.0329423336E-01   -6.5236587891E-01
   -6.9752597123E-01   -7.3866564003E-01   -7.7570116926E-01   -8.0857408731E-01
   -8.3725106758E-01   -8.6172364290E-01   -8.8200773892E-01   -8.9814303322E-01
   -9.1019214852E-01   -9.1823962743E-01   -9.2239088760E-01   -9.2277126378E-01