<UPF version="2.0.1">
  <PP_INFO>

 This pseudopotential file has been produced using the code
 ONCVPSP  (Optimized Norm-Conservinng Vanderbilt PSeudopotential)
 scalar-relativistic version 2.1.1, 03/26/2014 by D. R. Hamann
 The code is available through a link at URL www.mat-simresearch.com.
 Documentation with the package provides a full discription of the
 input data below.


 While it is not required under the terms of the GNU GPL, it is
 suggested that you cite D. R. Hamann, Phys. Rev. B 88, 085117 (2013)
 in any publication using these pseudopotentials.


 Copyright 2015 The Regents of the University of California
 
 This work is licensed under the Creative Commons Attribution-ShareAlike 
 4.0 International License. To view a copy of this license, visit 
 http://creativecommons.org/licenses/by-sa/4.0/ or send a letter to 
 Creative Commons, PO Box 1866, Mountain View, CA 94042, USA.
 
 This pseudopotential is part of the Schlipf-Gygi norm-conserving 
 pseudopotential library. Its construction parameters were tuned to 
 reproduce materials of a training set with very high accuracy and 
 should be suitable as a general purpose pseudopotential to treat a 
 variety of different compounds. For details of the construction and 
 testing of the pseudopotential please refer to:
 
 [insert reference to paper here]
 
 We kindly ask that you include this reference in all publications 
 associated to this pseudopotential.


    <PP_INPUTFILE>
# ATOM AND REFERENCE CONFIGURATION
# atsym  z    nc    nv    iexc   psfile
  Xe 54.00     8     3     4      upf
#
#   n    l    f        energy (Ha)
    1    0    2.00
    2    0    2.00
    2    1    6.00
    3    0    2.00
    3    1    6.00
    3    2   10.00
    4    0    2.00
    4    1    6.00
    4    2   10.00
    5    0    2.00
    5    1    6.00
#
# PSEUDOPOTENTIAL AND OPTIMIZATION
# lmax
    2
#
#   l,   rc,     ep,   ncon, nbas, qcut
    0   3.01052  -0.72551    5    8   4.78447
    1   3.01052  -0.30261    5    8   5.38876
    2   2.70406  -2.18230    5    8   6.88792
#
# LOCAL POTENTIAL
# lloc, lpopt,  rc(5),   dvloc0
    4    5   2.31564      0.00000
#
# VANDERBILT-KLEINMAN-BYLANDER PROJECTORs
# l, nproj, debl
    0    2   1.39003
    1    2   0.92996
    2    2   2.33954
#
# MODEL CORE CHARGE
# icmod, fcfact
    0   0.00000
#
# LOG DERIVATIVE ANALYSIS
# epsh1, epsh2, depsh
   -5.00    3.00    0.02
#
# OUTPUT GRID
# rlmax, drl
    6.00    0.01
#
# TEST CONFIGURATIONS
# ncnf
    0
# nvcnf
#   n    l    f
    </PP_INPUTFILE>
  </PP_INFO>
  <!--                               -->
  <!-- END OF HUMAN READABLE SECTION -->
  <!--                               -->
    <PP_HEADER
       generated="Generated using ONCVPSP code by D. R. Hamann"
       author="Martin Schlipf and Francois Gygi"
       date="150415"
       comment=""
       element="Xe"
       pseudo_type="NC"
       relativistic="scalar"
       is_ultrasoft="F"
       is_paw="F"
       is_coulomb="F"
       has_so="F"
       has_wfc="F"
       has_gipaw="F"
       core_correction="F"
       functional="PBE"
       z_valence="   18.00"
       total_psenergy="  -1.15897887859E+02"
       rho_cutoff="   6.01000000000E+00"
       l_max="2"
       l_local="-1"
       mesh_size="   602"
       number_of_wfc="0"
       number_of_proj="6"/>
 <PP_MESH>
   <PP_R type="real"  size=" 602" columns="8">
    0.0000    0.0100    0.0200    0.0300    0.0400    0.0500    0.0600    0.0700
    0.0800    0.0900    0.1000    0.1100    0.1200    0.1300    0.1400    0.1500
    0.1600    0.1700    0.1800    0.1900    0.2000    0.2100    0.2200    0.2300
    0.2400    0.2500    0.2600    0.2700    0.2800    0.2900    0.3000    0.3100
    0.3200    0.3300    0.3400    0.3500    0.3600    0.3700    0.3800    0.3900
    0.4000    0.4100    0.4200    0.4300    0.4400    0.4500    0.4600    0.4700
    0.4800    0.4900    0.5000    0.5100    0.5200    0.5300    0.5400    0.5500
    0.5600    0.5700    0.5800    0.5900    0.6000    0.6100    0.6200    0.6300
    0.6400    0.6500    0.6600    0.6700    0.6800    0.6900    0.7000    0.7100
    0.7200    0.7300    0.7400    0.7500    0.7600    0.7700    0.7800    0.7900
    0.8000    0.8100    0.8200    0.8300    0.8400    0.8500    0.8600    0.8700
    0.8800    0.8900    0.9000    0.9100    0.9200    0.9300    0.9400    0.9500
    0.9600    0.9700    0.9800    0.9900    1.0000    1.0100    1.0200    1.0300
    1.0400    1.0500    1.0600    1.0700    1.0800    1.0900    1.1000    1.1100
    1.1200    1.1300    1.1400    1.1500    1.1600    1.1700    1.1800    1.1900
    1.2000    1.2100    1.2200    1.2300    1.2400    1.2500    1.2600    1.2700
    1.2800    1.2900    1.3000    1.3100    1.3200    1.3300    1.3400    1.3500
    1.3600    1.3700    1.3800    1.3900    1.4000    1.4100    1.4200    1.4300
    1.4400    1.4500    1.4600    1.4700    1.4800    1.4900    1.5000    1.5100
    1.5200    1.5300    1.5400    1.5500    1.5600    1.5700    1.5800    1.5900
    1.6000    1.6100    1.6200    1.6300    1.6400    1.6500    1.6600    1.6700
    1.6800    1.6900    1.7000    1.7100    1.7200    1.7300    1.7400    1.7500
    1.7600    1.7700    1.7800    1.7900    1.8000    1.8100    1.8200    1.8300
    1.8400    1.8500    1.8600    1.8700    1.8800    1.8900    1.9000    1.9100
    1.9200    1.9300    1.9400    1.9500    1.9600    1.9700    1.9800    1.9900
    2.0000    2.0100    2.0200    2.0300    2.0400    2.0500    2.0600    2.0700
    2.0800    2.0900    2.1000    2.1100    2.1200    2.1300    2.1400    2.1500
    2.1600    2.1700    2.1800    2.1900    2.2000    2.2100    2.2200    2.2300
    2.2400    2.2500    2.2600    2.2700    2.2800    2.2900    2.3000    2.3100
    2.3200    2.3300    2.3400    2.3500    2.3600    2.3700    2.3800    2.3900
    2.4000    2.4100    2.4200    2.4300    2.4400    2.4500    2.4600    2.4700
    2.4800    2.4900    2.5000    2.5100    2.5200    2.5300    2.5400    2.5500
    2.5600    2.5700    2.5800    2.5900    2.6000    2.6100    2.6200    2.6300
    2.6400    2.6500    2.6600    2.6700    2.6800    2.6900    2.7000    2.7100
    2.7200    2.7300    2.7400    2.7500    2.7600    2.7700    2.7800    2.7900
    2.8000    2.8100    2.8200    2.8300    2.8400    2.8500    2.8600    2.8700
    2.8800    2.8900    2.9000    2.9100    2.9200    2.9300    2.9400    2.9500
    2.9600    2.9700    2.9800    2.9900    3.0000    3.0100    3.0200    3.0300
    3.0400    3.0500    3.0600    3.0700    3.0800    3.0900    3.1000    3.1100
    3.1200    3.1300    3.1400    3.1500    3.1600    3.1700    3.1800    3.1900
    3.2000    3.2100    3.2200    3.2300    3.2400    3.2500    3.2600    3.2700
    3.2800    3.2900    3.3000    3.3100    3.3200    3.3300    3.3400    3.3500
    3.3600    3.3700    3.3800    3.3900    3.4000    3.4100    3.4200    3.4300
    3.4400    3.4500    3.4600    3.4700    3.4800    3.4900    3.5000    3.5100
    3.5200    3.5300    3.5400    3.5500    3.5600    3.5700    3.5800    3.5900
    3.6000    3.6100    3.6200    3.6300    3.6400    3.6500    3.6600    3.6700
    3.6800    3.6900    3.7000    3.7100    3.7200    3.7300    3.7400    3.7500
    3.7600    3.7700    3.7800    3.7900    3.8000    3.8100    3.8200    3.8300
    3.8400    3.8500    3.8600    3.8700    3.8800    3.8900    3.9000    3.9100
    3.9200    3.9300    3.9400    3.9500    3.9600    3.9700    3.9800    3.9900
    4.0000    4.0100    4.0200    4.0300    4.0400    4.0500    4.0600    4.0700
    4.0800    4.0900    4.1000    4.1100    4.1200    4.1300    4.1400    4.1500
    4.1600    4.1700    4.1800    4.1900    4.2000    4.2100    4.2200    4.2300
    4.2400    4.2500    4.2600    4.2700    4.2800    4.2900    4.3000    4.3100
    4.3200    4.3300    4.3400    4.3500    4.3600    4.3700    4.3800    4.3900
    4.4000    4.4100    4.4200    4.4300    4.4400    4.4500    4.4600    4.4700
    4.4800    4.4900    4.5000    4.5100    4.5200    4.5300    4.5400    4.5500
    4.5600    4.5700    4.5800    4.5900    4.6000    4.6100    4.6200    4.6300
    4.6400    4.6500    4.6600    4.6700    4.6800    4.6900    4.7000    4.7100
    4.7200    4.7300    4.7400    4.7500    4.7600    4.7700    4.7800    4.7900
    4.8000    4.8100    4.8200    4.8300    4.8400    4.8500    4.8600    4.8700
    4.8800    4.8900    4.9000    4.9100    4.9200    4.9300    4.9400    4.9500
    4.9600    4.9700    4.9800    4.9900    5.0000    5.0100    5.0200    5.0300
    5.0400    5.0500    5.0600    5.0700    5.0800    5.0900    5.1000    5.1100
    5.1200    5.1300    5.1400    5.1500    5.1600    5.1700    5.1800    5.1900
    5.2000    5.2100    5.2200    5.2300    5.2400    5.2500    5.2600    5.2700
    5.2800    5.2900    5.3000    5.3100    5.3200    5.3300    5.3400    5.3500
    5.3600    5.3700    5.3800    5.3900    5.4000    5.4100    5.4200    5.4300
    5.4400    5.4500    5.4600    5.4700    5.4800    5.4900    5.5000    5.5100
    5.5200    5.5300    5.5400    5.5500    5.5600    5.5700    5.5800    5.5900
    5.6000    5.6100    5.6200    5.6300    5.6400    5.6500    5.6600    5.6700
    5.6800    5.6900    5.7000    5.7100    5.7200    5.7300    5.7400    5.7500
    5.7600    5.7700    5.7800    5.7900    5.8000    5.8100    5.8200    5.8300
    5.8400    5.8500    5.8600    5.8700    5.8800    5.8900    5.9000    5.9100
    5.9200    5.9300    5.9400    5.9500    5.9600    5.9700    5.9800    5.9900
    6.0000    6.0100
   </PP_R>
   <PP_RAB type="real"  size=" 602" columns="8">
    0.0100    0.0100    0.0100    0.0100    0.0100    0.0100    0.0100    0.0100
    0.0100    0.0100    0.0100    0.0100    0.0100    0.0100    0.0100    0.0100
    0.0100    0.0100    0.0100    0.0100    0.0100    0.0100    0.0100    0.0100
    0.0100    0.0100    0.0100    0.0100    0.0100    0.0100    0.0100    0.0100
    0.0100    0.0100    0.0100    0.0100    0.0100    0.0100    0.0100    0.0100
    0.0100    0.0100    0.0100    0.0100    0.0100    0.0100    0.0100    0.0100
    0.0100    0.0100    0.0100    0.0100    0.0100    0.0100    0.0100    0.0100
    0.0100    0.0100    0.0100    0.0100    0.0100    0.0100    0.0100    0.0100
    0.0100    0.0100    0.0100    0.0100    0.0100    0.0100    0.0100    0.0100
    0.0100    0.0100    0.0100    0.0100    0.0100    0.0100    0.0100    0.0100
    0.0100    0.0100    0.0100    0.0100    0.0100    0.0100    0.0100    0.0100
    0.0100    0.0100    0.0100    0.0100    0.0100    0.0100    0.0100    0.0100
    0.0100    0.0100    0.0100    0.0100    0.0100    0.0100    0.0100    0.0100
    0.0100    0.0100    0.0100    0.0100    0.0100    0.0100    0.0100    0.0100
    0.0100    0.0100    0.0100    0.0100    0.0100    0.0100    0.0100    0.0100
    0.0100    0.0100    0.0100    0.0100    0.0100    0.0100    0.0100    0.0100
    0.0100    0.0100    0.0100    0.0100    0.0100    0.0100    0.0100    0.0100
    0.0100    0.0100    0.0100    0.0100    0.0100    0.0100    0.0100    0.0100
    0.0100    0.0100    0.0100    0.0100    0.0100    0.0100    0.0100    0.0100
    0.0100    0.0100    0.0100    0.0100    0.0100    0.0100    0.0100    0.0100
    0.0100    0.0100    0.0100    0.0100    0.0100    0.0100    0.0100    0.0100
    0.0100    0.0100    0.0100    0.0100    0.0100    0.0100    0.0100    0.0100
    0.0100    0.0100    0.0100    0.0100    0.0100    0.0100    0.0100    0.0100
    0.0100    0.0100    0.0100    0.0100    0.0100    0.0100    0.0100    0.0100
    0.0100    0.0100    0.0100    0.0100    0.0100    0.0100    0.0100    0.0100
    0.0100    0.0100    0.0100    0.0100    0.0100    0.0100    0.0100    0.0100
    0.0100    0.0100    0.0100    0.0100    0.0100    0.0100    0.0100    0.0100
    0.0100    0.0100    0.0100    0.0100    0.0100    0.0100    0.0100    0.0100
    0.0100    0.0100    0.0100    0.0100    0.0100    0.0100    0.0100    0.0100
    0.0100    0.0100    0.0100    0.0100    0.0100    0.0100    0.0100    0.0100
    0.0100    0.0100    0.0100    0.0100    0.0100    0.0100    0.0100    0.0100
    0.0100    0.0100    0.0100    0.0100    0.0100    0.0100    0.0100    0.0100
    0.0100    0.0100    0.0100    0.0100    0.0100    0.0100    0.0100    0.0100
    0.0100    0.0100    0.0100    0.0100    0.0100    0.0100    0.0100    0.0100
    0.0100    0.0100    0.0100    0.0100    0.0100    0.0100    0.0100    0.0100
    0.0100    0.0100    0.0100    0.0100    0.0100    0.0100    0.0100    0.0100
    0.0100    0.0100    0.0100    0.0100    0.0100    0.0100    0.0100    0.0100
    0.0100    0.0100    0.0100    0.0100    0.0100    0.0100    0.0100    0.0100
    0.0100    0.0100    0.0100    0.0100    0.0100    0.0100    0.0100    0.0100
    0.0100    0.0100    0.0100    0.0100    0.0100    0.0100    0.0100    0.0100
    0.0100    0.0100    0.0100    0.0100    0.0100    0.0100    0.0100    0.0100
    0.0100    0.0100    0.0100    0.0100    0.0100    0.0100    0.0100    0.0100
    0.0100    0.0100    0.0100    0.0100    0.0100    0.0100    0.0100    0.0100
    0.0100    0.0100    0.0100    0.0100    0.0100    0.0100    0.0100    0.0100
    0.0100    0.0100    0.0100    0.0100    0.0100    0.0100    0.0100    0.0100
    0.0100    0.0100    0.0100    0.0100    0.0100    0.0100    0.0100    0.0100
    0.0100    0.0100    0.0100    0.0100    0.0100    0.0100    0.0100    0.0100
    0.0100    0.0100    0.0100    0.0100    0.0100    0.0100    0.0100    0.0100
    0.0100    0.0100    0.0100    0.0100    0.0100    0.0100    0.0100    0.0100
    0.0100    0.0100    0.0100    0.0100    0.0100    0.0100    0.0100    0.0100
    0.0100    0.0100    0.0100    0.0100    0.0100    0.0100    0.0100    0.0100
    0.0100    0.0100    0.0100    0.0100    0.0100    0.0100    0.0100    0.0100
    0.0100    0.0100    0.0100    0.0100    0.0100    0.0100    0.0100    0.0100
    0.0100    0.0100    0.0100    0.0100    0.0100    0.0100    0.0100    0.0100
    0.0100    0.0100    0.0100    0.0100    0.0100    0.0100    0.0100    0.0100
    0.0100    0.0100    0.0100    0.0100    0.0100    0.0100    0.0100    0.0100
    0.0100    0.0100    0.0100    0.0100    0.0100    0.0100    0.0100    0.0100
    0.0100    0.0100    0.0100    0.0100    0.0100    0.0100    0.0100    0.0100
    0.0100    0.0100    0.0100    0.0100    0.0100    0.0100    0.0100    0.0100
    0.0100    0.0100    0.0100    0.0100    0.0100    0.0100    0.0100    0.0100
    0.0100    0.0100    0.0100    0.0100    0.0100    0.0100    0.0100    0.0100
    0.0100    0.0100    0.0100    0.0100    0.0100    0.0100    0.0100    0.0100
    0.0100    0.0100    0.0100    0.0100    0.0100    0.0100    0.0100    0.0100
    0.0100    0.0100    0.0100    0.0100    0.0100    0.0100    0.0100    0.0100
    0.0100    0.0100    0.0100    0.0100    0.0100    0.0100    0.0100    0.0100
    0.0100    0.0100    0.0100    0.0100    0.0100    0.0100    0.0100    0.0100
    0.0100    0.0100    0.0100    0.0100    0.0100    0.0100    0.0100    0.0100
    0.0100    0.0100    0.0100    0.0100    0.0100    0.0100    0.0100    0.0100
    0.0100    0.0100    0.0100    0.0100    0.0100    0.0100    0.0100    0.0100
    0.0100    0.0100    0.0100    0.0100    0.0100    0.0100    0.0100    0.0100
    0.0100    0.0100    0.0100    0.0100    0.0100    0.0100    0.0100    0.0100
    0.0100    0.0100    0.0100    0.0100    0.0100    0.0100    0.0100    0.0100
    0.0100    0.0100    0.0100    0.0100    0.0100    0.0100    0.0100    0.0100
    0.0100    0.0100    0.0100    0.0100    0.0100    0.0100    0.0100    0.0100
    0.0100    0.0100    0.0100    0.0100    0.0100    0.0100    0.0100    0.0100
    0.0100    0.0100
   </PP_RAB>
 </PP_MESH>
  <PP_LOCAL type="real"  size=" 602" columns="4">
   -3.5018384444E+01   -3.5010666566E+01   -3.5205164272E+01   -3.5710497042E+01
   -3.6635284356E+01   -3.7508647783E+01   -3.7320075536E+01   -3.6148650802E+01
   -3.5129531298E+01   -3.4684443159E+01   -3.4584759240E+01   -3.4597458354E+01
   -3.4622848871E+01   -3.4634877736E+01   -3.4632232914E+01   -3.4618929711E+01
   -3.4598861052E+01   -3.4574887780E+01   -3.4549024873E+01   -3.4522744220E+01
   -3.4497188988E+01   -3.4473293887E+01   -3.4451839736E+01   -3.4433467230E+01
   -3.4418666637E+01   -3.4407754457E+01   -3.4400844158E+01   -3.4397818089E+01
   -3.4398305100E+01   -3.4401669210E+01   -3.4407013459E+01   -3.4413201922E+01
   -3.4418901186E+01   -3.4422640348E+01   -3.4422886045E+01   -3.4418127806E+01
   -3.4406966557E+01   -3.4388197058E+01   -3.4360880602E+01   -3.4324396257E+01
   -3.4278469999E+01   -3.4223178450E+01   -3.4158927634E+01   -3.4086409800E+01
   -3.4006543433E+01   -3.3920402950E+01   -3.3829145216E+01   -3.3733939729E+01
   -3.3635908247E+01   -3.3536078412E+01   -3.3435350610E+01   -3.3334481510E+01
   -3.3234081924E+01   -3.3134621513E+01   -3.3036443414E+01   -3.2939783739E+01
   -3.2844787307E+01   -3.2751530469E+01   -3.2660033755E+01   -3.2570279405E+01
   -3.2482220397E+01   -3.2395790619E+01   -3.2310910652E+01   -3.2227492112E+01
   -3.2145440554E+01   -3.2064656533E+01   -3.1985035944E+01   -3.1906469597E+01
   -3.1828842226E+01   -3.1752030807E+01   -3.1675903399E+01   -3.1600317648E+01
   -3.1525119697E+01   -3.1450143317E+01   -3.1375209635E+01   -3.1300128021E+01
   -3.1224697400E+01   -3.1148708573E+01   -3.1071947426E+01   -3.0994198953E+01
   -3.0915251947E+01   -3.0834904131E+01   -3.0752967453E+01   -3.0669273220E+01
   -3.0583676747E+01   -3.0496061220E+01   -3.0406340512E+01   -3.0314460783E+01
   -3.0220400781E+01   -3.0124170870E+01   -3.0025810891E+01   -2.9925387051E+01
   -2.9822988094E+01   -2.9718721017E+01   -2.9612706618E+01   -2.9505075109E+01
   -2.9395962020E+01   -2.9285504537E+01   -2.9173838542E+01   -2.9061095801E+01
   -2.8947401838E+01   -2.8832874829E+01   -2.8717624672E+01   -2.8601752556E+01
   -2.8485351206E+01   -2.8368504246E+01   -2.8251286767E+01   -2.8133766483E+01
   -2.8016004082E+01   -2.7898054262E+01   -2.7779965158E+01   -2.7661780010E+01
   -2.7543537783E+01   -2.7425273774E+01   -2.7307019410E+01   -2.7188803043E+01
   -2.7070650618E+01   -2.6952586020E+01   -2.6834630464E+01   -2.6716803487E+01
   -2.6599123109E+01   -2.6481605684E+01   -2.6364265726E+01   -2.6247116587E+01
   -2.6130170447E+01   -2.6013437505E+01   -2.5896926970E+01   -2.5780647086E+01
   -2.5664604052E+01   -2.5548803258E+01   -2.5433249133E+01   -2.5317944239E+01
   -2.5202890573E+01   -2.5088089060E+01   -2.4973539303E+01   -2.4859240576E+01
   -2.4745191066E+01   -2.4631388463E+01   -2.4517830202E+01   -2.4404513122E+01
   -2.4291434168E+01   -2.4178590132E+01   -2.4065978201E+01   -2.3953595455E+01
   -2.3841439963E+01   -2.3729509876E+01   -2.3617804199E+01   -2.3506322725E+01
   -2.3395065525E+01   -2.3284034133E+01   -2.3173229859E+01   -2.3062655535E+01
   -2.2952313792E+01   -2.2842208110E+01   -2.2732341890E+01   -2.2622718844E+01
   -2.2513342240E+01   -2.2404215544E+01   -2.2295340967E+01   -2.2186721219E+01
   -2.2078356804E+01   -2.1970249158E+01   -2.1862397008E+01   -2.1754800048E+01
   -2.1647455779E+01   -2.1540362329E+01   -2.1433516794E+01   -2.1326916518E+01
   -2.1220559483E+01   -2.1114443431E+01   -2.1008568884E+01   -2.0902935315E+01
   -2.0797547550E+01   -2.0692408023E+01   -2.0587527331E+01   -2.0482911839E+01
   -2.0378578621E+01   -2.0274538653E+01   -2.0170814684E+01   -2.0067423819E+01
   -1.9964391949E+01   -1.9861742203E+01   -1.9759502111E+01   -1.9657699130E+01
   -1.9556361385E+01   -1.9455517958E+01   -1.9355197107E+01   -1.9255426452E+01
   -1.9156234271E+01   -1.9057644234E+01   -1.8959683880E+01   -1.8862372713E+01
   -1.8765734283E+01   -1.8669786190E+01   -1.8574545898E+01   -1.8480029888E+01
   -1.8386249059E+01   -1.8293218879E+01   -1.8200945345E+01   -1.8109439469E+01
   -1.8018706554E+01   -1.7928751866E+01   -1.7839580703E+01   -1.7751193655E+01
   -1.7663594962E+01   -1.7576783120E+01   -1.7490758745E+01   -1.7405520930E+01
   -1.7321066666E+01   -1.7237395241E+01   -1.7154501700E+01   -1.7072383083E+01
   -1.6991035104E+01   -1.6910452250E+01   -1.6830630571E+01   -1.6751563246E+01
   -1.6673244731E+01   -1.6595668858E+01   -1.6518828340E+01   -1.6442717012E+01
   -1.6367327014E+01   -1.6292650886E+01   -1.6218681342E+01   -1.6145409789E+01
   -1.6072828470E+01   -1.6000928902E+01   -1.5929702207E+01   -1.5859140211E+01
   -1.5789233492E+01   -1.5719972992E+01   -1.5651349827E+01   -1.5583354177E+01
   -1.5515976560E+01   -1.5449207516E+01   -1.5383037626E+01   -1.5317457103E+01
   -1.5252456947E+01   -1.5188028342E+01   -1.5124161779E+01   -1.5060849059E+01
   -1.4998081764E+01   -1.4935850768E+01   -1.4874148654E+01   -1.4812967317E+01
   -1.4752298314E+01   -1.4692134706E+01   -1.4632468837E+01   -1.4573292908E+01
   -1.4514600467E+01   -1.4456384328E+01   -1.4398637293E+01   -1.4341353395E+01
   -1.4284525947E+01   -1.4228148281E+01   -1.4172214919E+01   -1.4116719687E+01
   -1.4061656377E+01   -1.4007019992E+01   -1.3952804882E+01   -1.3899005222E+01
   -1.3845616479E+01   -1.3792633522E+01   -1.3740050843E+01   -1.3687864341E+01
   -1.3636069368E+01   -1.3584660733E+01   -1.3533634667E+01   -1.3482986913E+01
   -1.3432712785E+01   -1.3382808564E+01   -1.3333270405E+01   -1.3284094097E+01
   -1.3235275917E+01   -1.3186812347E+01   -1.3138699572E+01   -1.3090933865E+01
   -1.3043511941E+01   -1.2996430280E+01   -1.2949685160E+01   -1.2903273485E+01
   -1.2857191913E+01   -1.2811436929E+01   -1.2766005395E+01   -1.2720894163E+01
   -1.2676099945E+01   -1.2631619522E+01   -1.2587449916E+01   -1.2543588022E+01
   -1.2500030582E+01   -1.2456774729E+01   -1.2413817452E+01   -1.2371155657E+01
   -1.2328786376E+01   -1.2286706743E+01   -1.2244913811E+01   -1.2203404518E+01
   -1.2162176134E+01   -1.2121225796E+01   -1.2080550532E+01   -1.2040147538E+01
   -1.2000014157E+01   -1.1960147629E+01   -1.1920544874E+01   -1.1881203593E+01
   -1.1842121214E+01   -1.1803295035E+01   -1.1764722409E+01   -1.1726401117E+01
   -1.1688328722E+01   -1.1650502636E+01   -1.1612920568E+01   -1.1575580253E+01
   -1.1538479353E+01   -1.1501615293E+01   -1.1464986080E+01   -1.1428589494E+01
   -1.1392423255E+01   -1.1356485040E+01   -1.1320772907E+01   -1.1285284736E+01
   -1.1250018301E+01   -1.1214971500E+01   -1.1180142441E+01   -1.1145529101E+01
   -1.1111129319E+01   -1.1076941179E+01   -1.1042962844E+01   -1.1009192385E+01
   -1.0975627714E+01   -1.0942267066E+01   -1.0909108666E+01   -1.0876150675E+01
   -1.0843391083E+01   -1.0810828248E+01   -1.0778460461E+01   -1.0746285969E+01
   -1.0714302848E+01   -1.0682509546E+01   -1.0650904431E+01   -1.0619485830E+01
   -1.0588251910E+01   -1.0557201183E+01   -1.0526332099E+01   -1.0495643063E+01
   -1.0465132335E+01   -1.0434798469E+01   -1.0404640000E+01   -1.0374655410E+01
   -1.0344843057E+01   -1.0315201511E+01   -1.0285729399E+01   -1.0256425275E+01
   -1.0227287601E+01   -1.0198314940E+01   -1.0169506019E+01   -1.0140859456E+01
   -1.0112373826E+01   -1.0084047663E+01   -1.0055879795E+01   -1.0027868904E+01
   -1.0000013676E+01   -9.9723126194E+00   -9.9447646424E+00   -9.9173684970E+00
   -9.8901229281E+00   -9.8630265649E+00   -9.8360782389E+00   -9.8092768191E+00
   -9.7826211088E+00   -9.7561098633E+00   -9.7297418205E+00   -9.7035159671E+00
   -9.6774311623E+00   -9.6514862651E+00   -9.6256799917E+00   -9.6000113607E+00
   -9.5744793118E+00   -9.5490827573E+00   -9.5238205472E+00   -9.4986915672E+00
   -9.4736948868E+00   -9.4488294688E+00   -9.4240942763E+00   -9.3994881368E+00
   -9.3750101605E+00   -9.3506593861E+00   -9.3264348250E+00   -9.3023354479E+00
   -9.2783601979E+00   -9.2545082517E+00   -9.2307786664E+00   -9.2071704995E+00
   -9.1836827130E+00   -9.1603144231E+00   -9.1370647933E+00   -9.1139329250E+00
   -9.0909179192E+00   -9.0680187404E+00   -9.0452346501E+00   -9.0225648053E+00
   -9.0000083492E+00   -8.9775644010E+00   -8.9552320094E+00   -8.9330104812E+00
   -8.9108989995E+00   -8.8888967474E+00   -8.8670028566E+00   -8.8452164788E+00
   -8.8235369303E+00   -8.8019634322E+00   -8.7804952055E+00   -8.7591314025E+00
   -8.7378712552E+00   -8.7167140957E+00   -8.6956591813E+00   -8.6747057695E+00
   -8.6538530401E+00   -8.6331002839E+00   -8.6124468554E+00   -8.5918920467E+00
   -8.5714351497E+00   -8.5510753789E+00   -8.5308120627E+00   -8.5106445853E+00
   -8.4905722716E+00   -8.4705944468E+00   -8.4507103658E+00   -8.4309193755E+00
   -8.4112208962E+00   -8.3916142842E+00   -8.3720988961E+00   -8.3526740336E+00
   -8.3333390439E+00   -8.3140933892E+00   -8.2949364559E+00   -8.2758676305E+00
   -8.2568862671E+00   -8.2379916966E+00   -8.2191834283E+00   -8.2004608772E+00
   -8.1818234583E+00   -8.1632705841E+00   -8.1448015535E+00   -8.1264159274E+00
   -8.1081131481E+00   -8.0898926578E+00   -8.0717538987E+00   -8.0536962252E+00
   -8.0357191528E+00   -8.0178221828E+00   -8.0000047835E+00   -7.9822664232E+00
   -7.9646065253E+00   -7.9470245377E+00   -7.9295200273E+00   -7.9120924871E+00
   -7.8947414101E+00   -7.8774662894E+00   -7.8602665094E+00   -7.8431416885E+00
   -7.8260913484E+00   -7.8091150060E+00   -7.7922121779E+00   -7.7753823273E+00
   -7.7586249744E+00   -7.7419397182E+00   -7.7253260981E+00   -7.7087836530E+00
   -7.6923119223E+00   -7.6759103450E+00   -7.6595785706E+00   -7.6433161687E+00
   -7.6271227000E+00   -7.6109977250E+00   -7.5949407716E+00   -7.5789513644E+00
   -7.5630291590E+00   -7.5471737366E+00   -7.5313846784E+00   -7.5156615654E+00
   -7.5000039137E+00   -7.4844113406E+00   -7.4688834873E+00   -7.4534199542E+00
   -7.4380203422E+00   -7.4226842517E+00   -7.4074111953E+00   -7.3922008635E+00
   -7.3770528895E+00   -7.3619668924E+00   -7.3469424916E+00   -7.3319793017E+00
   -7.3170768527E+00   -7.3022348757E+00   -7.2874530078E+00   -7.2727308858E+00
   -7.2580681468E+00   -7.2434644126E+00   -7.2289192554E+00   -7.2144324112E+00
   -7.2000035339E+00   -7.1856322774E+00   -7.1713182955E+00   -7.1570612237E+00
   -7.1428606604E+00   -7.1287163522E+00   -7.1146279691E+00   -7.1005951813E+00
   -7.0866176586E+00   -7.0726950564E+00   -7.0588269834E+00   -7.0450132032E+00
   -7.0312534010E+00   -7.0175472622E+00   -7.0038944724E+00   -6.9902947120E+00
   -6.9767475865E+00   -6.9632528810E+00   -6.9498102956E+00   -6.9364195304E+00
   -6.9230802855E+00   -6.9097922608E+00   -6.8965550795E+00   -6.8833685188E+00
   -6.8702323043E+00   -6.8571461502E+00   -6.8441097703E+00   -6.8311228788E+00
   -6.8181851358E+00   -6.8052962837E+00   -6.7924560832E+00   -6.7796642617E+00
   -6.7669205466E+00   -6.7542246652E+00   -6.7415763201E+00   -6.7289752066E+00
   -6.7164211250E+00   -6.7039138152E+00   -6.6914530174E+00   -6.6790384716E+00
   -6.6666699179E+00   -6.6543470234E+00   -6.6420696019E+00   -6.6298374151E+00
   -6.6176502153E+00   -6.6055077546E+00   -6.5934097851E+00   -6.5813560262E+00
   -6.5693462189E+00   -6.5573801753E+00   -6.5454576591E+00   -6.5335784341E+00
   -6.5217422639E+00   -6.5099489122E+00   -6.4981980764E+00   -6.4864895832E+00
   -6.4748232197E+00   -6.4631987607E+00   -6.4516159809E+00   -6.4400746549E+00
   -6.4285745416E+00   -6.4171153726E+00   -6.4056969941E+00   -6.3943191912E+00
   -6.3829817494E+00   -6.3716844536E+00   -6.3604270893E+00   -6.3492094046E+00
   -6.3380311876E+00   -6.3268922723E+00   -6.3157924539E+00   -6.3047315277E+00
   -6.2937092889E+00   -6.2827255327E+00   -6.2717800035E+00   -6.2608725308E+00
   -6.2500029422E+00   -6.2391710427E+00   -6.2283766368E+00   -6.2176195295E+00
   -6.2068995255E+00   -6.1962163714E+00   -6.1855699235E+00   -6.1749600095E+00
   -6.1643864432E+00   -6.1538490384E+00   -6.1433476091E+00   -6.1328819692E+00
   -6.1224518730E+00   -6.1120571903E+00   -6.1016977543E+00   -6.0913733876E+00
   -6.0810839127E+00   -6.0708291522E+00   -6.0606089285E+00   -6.0504230094E+00
   -6.0402712649E+00   -6.0301535397E+00   -6.0200696645E+00   -6.0100194702E+00
   -6.0000027874E+00   -5.9900194471E+00
  </PP_LOCAL>
 <PP_NONLOCAL>
   <PP_BETA.1
       type="real"
       size=" 602"
       columns="4"
       index="1"
       angular_momentum="0"
       cutoff_radius_index=" 306"
       cutoff_radius="    3.0500000000E+00" >
    0.0000000000E+00   -3.2287486421E-02   -6.4552753844E-02   -9.6773598558E-02
   -1.2892784742E-01   -1.6099337314E-01   -1.9294810962E-01   -2.2477006722E-01
   -2.5643734811E-01   -2.8792816164E-01   -3.1922083964E-01   -3.5029385191E-01
   -3.8112582151E-01   -4.1169554027E-01   -4.4198198422E-01   -4.7196432903E-01
   -5.0162196553E-01   -5.3093451519E-01   -5.5988184563E-01   -5.8844408616E-01
   -6.1660164325E-01   -6.4433521611E-01   -6.7162581212E-01   -6.9845476235E-01
   -7.2480373701E-01   -7.5065476079E-01   -7.7599022832E-01   -8.0079291936E-01
   -8.2504601404E-01   -8.4873310797E-01   -8.7183822726E-01   -8.9434584337E-01
   -9.1624088788E-01   -9.3750876690E-01   -9.5813537577E-01   -9.7810711284E-01
   -9.9741089388E-01   -1.0160341652E+00   -1.0339649177E+00   -1.0511916998E+00
   -1.0677036299E+00   -1.0834904095E+00   -1.0985423347E+00   -1.1128503084E+00
   -1.1264058514E+00   -1.1392011132E+00   -1.1512288827E+00   -1.1624825977E+00
   -1.1729563544E+00   -1.1826449160E+00   -1.1915437216E+00   -1.1996488936E+00
   -1.2069572437E+00   -1.2134662807E+00   -1.2191742158E+00   -1.2240799658E+00
   -1.2281831615E+00   -1.2314841453E+00   -1.2339839806E+00   -1.2356844471E+00
   -1.2365880479E+00   -1.2366980051E+00   -1.2360182619E+00   -1.2345534811E+00
   -1.2323090411E+00   -1.2292910345E+00   -1.2255062637E+00   -1.2209622350E+00
   -1.2156671535E+00   -1.2096299166E+00   -1.2028601053E+00   -1.1953679763E+00
   -1.1871644521E+00   -1.1782611109E+00   -1.1686701743E+00   -1.1584044957E+00
   -1.1474775468E+00   -1.1359034034E+00   -1.1236967304E+00   -1.1108727662E+00
   -1.0974473051E+00   -1.0834366805E+00   -1.0688577459E+00   -1.0537278559E+00
   -1.0380648462E+00   -1.0218870123E+00   -1.0052130888E+00   -9.8806222648E-01
   -9.7045396969E-01   -9.5240823286E-01   -9.3394527622E-01   -9.1508568122E-01