<UPF version="2.0.1">
  <PP_INFO>

 This pseudopotential file has been produced using the code
 ONCVPSP  (Optimized Norm-Conservinng Vanderbilt PSeudopotential)
 scalar-relativistic version 2.1.1, 03/26/2014 by D. R. Hamann
 The code is available through a link at URL www.mat-simresearch.com.
 Documentation with the package provides a full discription of the
 input data below.


 While it is not required under the terms of the GNU GPL, it is
 suggested that you cite D. R. Hamann, Phys. Rev. B 88, 085117 (2013)
 in any publication using these pseudopotentials.


 Copyright 2015 The Regents of the University of California
 
 This work is licensed under the Creative Commons Attribution-ShareAlike 
 4.0 International License. To view a copy of this license, visit 
 http://creativecommons.org/licenses/by-sa/4.0/ or send a letter to 
 Creative Commons, PO Box 1866, Mountain View, CA 94042, USA.
 
 This pseudopotential is part of the Schlipf-Gygi norm-conserving 
 pseudopotential library. Its construction parameters were tuned to 
 reproduce materials of a training set with very high accuracy and 
 should be suitable as a general purpose pseudopotential to treat a 
 variety of different compounds. For details of the construction and 
 testing of the pseudopotential please refer to:
 
 [insert reference to paper here]
 
 We kindly ask that you include this reference in all publications 
 associated to this pseudopotential.


    <PP_INPUTFILE>
# ATOM AND REFERENCE CONFIGURATION
# atsym  z    nc    nv    iexc   psfile
  Y 39.00     6     4     4      upf
#
#   n    l    f        energy (Ha)
    1    0    2.00
    2    0    2.00
    2    1    6.00
    3    0    2.00
    3    1    6.00
    3    2   10.00
    4    0    2.00
    4    1    6.00
    5    0    2.00
    4    2    1.00
#
# PSEUDOPOTENTIAL AND OPTIMIZATION
# lmax
    2
#
#   l,   rc,     ep,   ncon, nbas, qcut
    0   2.29586  -1.76377    5    8   5.62847
    1   2.08690  -1.02592    5    8   6.34430
    2   1.85223  -0.09245    5    8   7.02374
#
# LOCAL POTENTIAL
# lloc, lpopt,  rc(5),   dvloc0
    4    5   1.74499      0.00000
#
# VANDERBILT-KLEINMAN-BYLANDER PROJECTORs
# l, nproj, debl
    0    2   1.61300
    1    2   1.58450
    2    2   1.34808
#
# MODEL CORE CHARGE
# icmod, fcfact
    0   0.00000
#
# LOG DERIVATIVE ANALYSIS
# epsh1, epsh2, depsh
   -5.00    3.00    0.02
#
# OUTPUT GRID
# rlmax, drl
    6.00    0.01
#
# TEST CONFIGURATIONS
# ncnf
    0
# nvcnf
#   n    l    f
    </PP_INPUTFILE>
  </PP_INFO>
  <!--                               -->
  <!-- END OF HUMAN READABLE SECTION -->
  <!--                               -->
    <PP_HEADER
       generated="Generated using ONCVPSP code by D. R. Hamann"
       author="Martin Schlipf and Francois Gygi"
       date="150105"
       comment=""
       element="Y "
       pseudo_type="NC"
       relativistic="scalar"
       is_ultrasoft="F"
       is_paw="F"
       is_coulomb="F"
       has_so="F"
       has_wfc="F"
       has_gipaw="F"
       core_correction="F"
       functional="PBE"
       z_valence="   11.00"
       total_psenergy="  -3.84259801601E+01"
       rho_cutoff="   6.01000000000E+00"
       l_max="2"
       l_local="-1"
       mesh_size="   602"
       number_of_wfc="0"
       number_of_proj="6"/>
 <PP_MESH>
   <PP_R type="real"  size=" 602" columns="8">
    0.0000    0.0100    0.0200    0.0300    0.0400    0.0500    0.0600    0.0700
    0.0800    0.0900    0.1000    0.1100    0.1200    0.1300    0.1400    0.1500
    0.1600    0.1700    0.1800    0.1900    0.2000    0.2100    0.2200    0.2300
    0.2400    0.2500    0.2600    0.2700    0.2800    0.2900    0.3000    0.3100
    0.3200    0.3300    0.3400    0.3500    0.3600    0.3700    0.3800    0.3900
    0.4000    0.4100    0.4200    0.4300    0.4400    0.4500    0.4600    0.4700
    0.4800    0.4900    0.5000    0.5100    0.5200    0.5300    0.5400    0.5500
    0.5600    0.5700    0.5800    0.5900    0.6000    0.6100    0.6200    0.6300
    0.6400    0.6500    0.6600    0.6700    0.6800    0.6900    0.7000    0.7100
    0.7200    0.7300    0.7400    0.7500    0.7600    0.7700    0.7800    0.7900
    0.8000    0.8100    0.8200    0.8300    0.8400    0.8500    0.8600    0.8700
    0.8800    0.8900    0.9000    0.9100    0.9200    0.9300    0.9400    0.9500
    0.9600    0.9700    0.9800    0.9900    1.0000    1.0100    1.0200    1.0300
    1.0400    1.0500    1.0600    1.0700    1.0800    1.0900    1.1000    1.1100
    1.1200    1.1300    1.1400    1.1500    1.1600    1.1700    1.1800    1.1900
    1.2000    1.2100    1.2200    1.2300    1.2400    1.2500    1.2600    1.2700
    1.2800    1.2900    1.3000    1.3100    1.3200    1.3300    1.3400    1.3500
    1.3600    1.3700    1.3800    1.3900    1.4000    1.4100    1.4200    1.4300
    1.4400    1.4500    1.4600    1.4700    1.4800    1.4900    1.5000    1.5100
    1.5200    1.5300    1.5400    1.5500    1.5600    1.5700    1.5800    1.5900
    1.6000    1.6100    1.6200    1.6300    1.6400    1.6500    1.6600    1.6700
    1.6800    1.6900    1.7000    1.7100    1.7200    1.7300    1.7400    1.7500
    1.7600    1.7700    1.7800    1.7900    1.8000    1.8100    1.8200    1.8300
    1.8400    1.8500    1.8600    1.8700    1.8800    1.8900    1.9000    1.9100
    1.9200    1.9300    1.9400    1.9500    1.9600    1.9700    1.9800    1.9900
    2.0000    2.0100    2.0200    2.0300    2.0400    2.0500    2.0600    2.0700
    2.0800    2.0900    2.1000    2.1100    2.1200    2.1300    2.1400    2.1500
    2.1600    2.1700    2.1800    2.1900    2.2000    2.2100    2.2200    2.2300
    2.2400    2.2500    2.2600    2.2700    2.2800    2.2900    2.3000    2.3100
    2.3200    2.3300    2.3400    2.3500    2.3600    2.3700    2.3800    2.3900
    2.4000    2.4100    2.4200    2.4300    2.4400    2.4500    2.4600    2.4700
    2.4800    2.4900    2.5000    2.5100    2.5200    2.5300    2.5400    2.5500
    2.5600    2.5700    2.5800    2.5900    2.6000    2.6100    2.6200    2.6300
    2.6400    2.6500    2.6600    2.6700    2.6800    2.6900    2.7000    2.7100
    2.7200    2.7300    2.7400    2.7500    2.7600    2.7700    2.7800    2.7900
    2.8000    2.8100    2.8200    2.8300    2.8400    2.8500    2.8600    2.8700
    2.8800    2.8900    2.9000    2.9100    2.9200    2.9300    2.9400    2.9500
    2.9600    2.9700    2.9800    2.9900    3.0000    3.0100    3.0200    3.0300
    3.0400    3.0500    3.0600    3.0700    3.0800    3.0900    3.1000    3.1100
    3.1200    3.1300    3.1400    3.1500    3.1600    3.1700    3.1800    3.1900
    3.2000    3.2100    3.2200    3.2300    3.2400    3.2500    3.2600    3.2700
    3.2800    3.2900    3.3000    3.3100    3.3200    3.3300    3.3400    3.3500
    3.3600    3.3700    3.3800    3.3900    3.4000    3.4100    3.4200    3.4300
    3.4400    3.4500    3.4600    3.4700    3.4800    3.4900    3.5000    3.5100
    3.5200    3.5300    3.5400    3.5500    3.5600    3.5700    3.5800    3.5900
    3.6000    3.6100    3.6200    3.6300    3.6400    3.6500    3.6600    3.6700
    3.6800    3.6900    3.7000    3.7100    3.7200    3.7300    3.7400    3.7500
    3.7600    3.7700    3.7800    3.7900    3.8000    3.8100    3.8200    3.8300
    3.8400    3.8500    3.8600    3.8700    3.8800    3.8900    3.9000    3.9100
    3.9200    3.9300    3.9400    3.9500    3.9600    3.9700    3.9800    3.9900
    4.0000    4.0100    4.0200    4.0300    4.0400    4.0500    4.0600    4.0700
    4.0800    4.0900    4.1000    4.1100    4.1200    4.1300    4.1400    4.1500
    4.1600    4.1700    4.1800    4.1900    4.2000    4.2100    4.2200    4.2300
    4.2400    4.2500    4.2600    4.2700    4.2800    4.2900    4.3000    4.3100
    4.3200    4.3300    4.3400    4.3500    4.3600    4.3700    4.3800    4.3900
    4.4000    4.4100    4.4200    4.4300    4.4400    4.4500    4.4600    4.4700
    4.4800    4.4900    4.5000    4.5100    4.5200    4.5300    4.5400    4.5500
    4.5600    4.5700    4.5800    4.5900    4.6000    4.6100    4.6200    4.6300
    4.6400    4.6500    4.6600    4.6700    4.6800    4.6900    4.7000    4.7100
    4.7200    4.7300    4.7400    4.7500    4.7600    4.7700    4.7800    4.7900
    4.8000    4.8100    4.8200    4.8300    4.8400    4.8500    4.8600    4.8700
    4.8800    4.8900    4.9000    4.9100    4.9200    4.9300    4.9400    4.9500
    4.9600    4.9700    4.9800    4.9900    5.0000    5.0100    5.0200    5.0300
    5.0400    5.0500    5.0600    5.0700    5.0800    5.0900    5.1000    5.1100
    5.1200    5.1300    5.1400    5.1500    5.1600    5.1700    5.1800    5.1900
    5.2000    5.2100    5.2200    5.2300    5.2400    5.2500    5.2600    5.2700
    5.2800    5.2900    5.3000    5.3100    5.3200    5.3300    5.3400    5.3500
    5.3600    5.3700    5.3800    5.3900    5.4000    5.4100    5.4200    5.4300
    5.4400    5.4500    5.4600    5.4700    5.4800    5.4900    5.5000    5.5100
    5.5200    5.5300    5.5400    5.5500    5.5600    5.5700    5.5800    5.5900
    5.6000    5.6100    5.6200    5.6300    5.6400    5.6500    5.6600    5.6700
    5.6800    5.6900    5.7000    5.7100    5.7200    5.7300    5.7400    5.7500
    5.7600    5.7700    5.7800    5.7900    5.8000    5.8100    5.8200    5.8300
    5.8400    5.8500    5.8600    5.8700    5.8800    5.8900    5.9000    5.9100
    5.9200    5.9300    5.9400    5.9500    5.9600    5.9700    5.9800    5.9900
    6.0000    6.0100
   </PP_R>
   <PP_RAB type="real"  size=" 602" columns="8">
    0.0100    0.0100    0.0100    0.0100    0.0100    0.0100    0.0100    0.0100
    0.0100    0.0100    0.0100    0.0100    0.0100    0.0100    0.0100    0.0100
    0.0100    0.0100    0.0100    0.0100    0.0100    0.0100    0.0100    0.0100
    0.0100    0.0100    0.0100    0.0100    0.0100    0.0100    0.0100    0.0100
    0.0100    0.0100    0.0100    0.0100    0.0100    0.0100    0.0100    0.0100
    0.0100    0.0100    0.0100    0.0100    0.0100    0.0100    0.0100    0.0100
    0.0100    0.0100    0.0100    0.0100    0.0100    0.0100    0.0100    0.0100
    0.0100    0.0100    0.0100    0.0100    0.0100    0.0100    0.0100    0.0100
    0.0100    0.0100    0.0100    0.0100    0.0100    0.0100    0.0100    0.0100
    0.0100    0.0100    0.0100    0.0100    0.0100    0.0100    0.0100    0.0100
    0.0100    0.0100    0.0100    0.0100    0.0100    0.0100    0.0100    0.0100
    0.0100    0.0100    0.0100    0.0100    0.0100    0.0100    0.0100    0.0100
    0.0100    0.0100    0.0100    0.0100    0.0100    0.0100    0.0100    0.0100
    0.0100    0.0100    0.0100    0.0100    0.0100    0.0100    0.0100    0.0100
    0.0100    0.0100    0.0100    0.0100    0.0100    0.0100    0.0100    0.0100
    0.0100    0.0100    0.0100    0.0100    0.0100    0.0100    0.0100    0.0100
    0.0100    0.0100    0.0100    0.0100    0.0100    0.0100    0.0100    0.0100
    0.0100    0.0100    0.0100    0.0100    0.0100    0.0100    0.0100    0.0100
    0.0100    0.0100    0.0100    0.0100    0.0100    0.0100    0.0100    0.0100
    0.0100    0.0100    0.0100    0.0100    0.0100    0.0100    0.0100    0.0100
    0.0100    0.0100    0.0100    0.0100    0.0100    0.0100    0.0100    0.0100
    0.0100    0.0100    0.0100    0.0100    0.0100    0.0100    0.0100    0.0100
    0.0100    0.0100    0.0100    0.0100    0.0100    0.0100    0.0100    0.0100
    0.0100    0.0100    0.0100    0.0100    0.0100    0.0100    0.0100    0.0100
    0.0100    0.0100    0.0100    0.0100    0.0100    0.0100    0.0100    0.0100
    0.0100    0.0100    0.0100    0.0100    0.0100    0.0100    0.0100    0.0100
    0.0100    0.0100    0.0100    0.0100    0.0100    0.0100    0.0100    0.0100
    0.0100    0.0100    0.0100    0.0100    0.0100    0.0100    0.0100    0.0100
    0.0100    0.0100    0.0100    0.0100    0.0100    0.0100    0.0100    0.0100
    0.0100    0.0100    0.0100    0.0100    0.0100    0.0100    0.0100    0.0100
    0.0100    0.0100    0.0100    0.0100    0.0100    0.0100    0.0100    0.0100
    0.0100    0.0100    0.0100    0.0100    0.0100    0.0100    0.0100    0.0100
    0.0100    0.0100    0.0100    0.0100    0.0100    0.0100    0.0100    0.0100
    0.0100    0.0100    0.0100    0.0100    0.0100    0.0100    0.0100    0.0100
    0.0100    0.0100    0.0100    0.0100    0.0100    0.0100    0.0100    0.0100
    0.0100    0.0100    0.0100    0.0100    0.0100    0.0100    0.0100    0.0100
    0.0100    0.0100    0.0100    0.0100    0.0100    0.0100    0.0100    0.0100
    0.0100    0.0100    0.0100    0.0100    0.0100    0.0100    0.0100    0.0100
    0.0100    0.0100    0.0100    0.0100    0.0100    0.0100    0.0100    0.0100
    0.0100    0.0100    0.0100    0.0100    0.0100    0.0100    0.0100    0.0100
    0.0100    0.0100    0.0100    0.0100    0.0100    0.0100    0.0100    0.0100
    0.0100    0.0100    0.0100    0.0100    0.0100    0.0100    0.0100    0.0100
    0.0100    0.0100    0.0100    0.0100    0.0100    0.0100    0.0100    0.0100
    0.0100    0.0100    0.0100    0.0100    0.0100    0.0100    0.0100    0.0100
    0.0100    0.0100    0.0100    0.0100    0.0100    0.0100    0.0100    0.0100
    0.0100    0.0100    0.0100    0.0100    0.0100    0.0100    0.0100    0.0100
    0.0100    0.0100    0.0100    0.0100    0.0100    0.0100    0.0100    0.0100
    0.0100    0.0100    0.0100    0.0100    0.0100    0.0100    0.0100    0.0100
    0.0100    0.0100    0.0100    0.0100    0.0100    0.0100    0.0100    0.0100
    0.0100    0.0100    0.0100    0.0100    0.0100    0.0100    0.0100    0.0100
    0.0100    0.0100    0.0100    0.0100    0.0100    0.0100    0.0100    0.0100
    0.0100    0.0100    0.0100    0.0100    0.0100    0.0100    0.0100    0.0100
    0.0100    0.0100    0.0100    0.0100    0.0100    0.0100    0.0100    0.0100
    0.0100    0.0100    0.0100    0.0100    0.0100    0.0100    0.0100    0.0100
    0.0100    0.0100    0.0100    0.0100    0.0100    0.0100    0.0100    0.0100
    0.0100    0.0100    0.0100    0.0100    0.0100    0.0100    0.0100    0.0100
    0.0100    0.0100    0.0100    0.0100    0.0100    0.0100    0.0100    0.0100
    0.0100    0.0100    0.0100    0.0100    0.0100    0.0100    0.0100    0.0100
    0.0100    0.0100    0.0100    0.0100    0.0100    0.0100    0.0100    0.0100
    0.0100    0.0100    0.0100    0.0100    0.0100    0.0100    0.0100    0.0100
    0.0100    0.0100    0.0100    0.0100    0.0100    0.0100    0.0100    0.0100
    0.0100    0.0100    0.0100    0.0100    0.0100    0.0100    0.0100    0.0100
    0.0100    0.0100    0.0100    0.0100    0.0100    0.0100    0.0100    0.0100
    0.0100    0.0100    0.0100    0.0100    0.0100    0.0100    0.0100    0.0100
    0.0100    0.0100    0.0100    0.0100    0.0100    0.0100    0.0100    0.0100
    0.0100    0.0100    0.0100    0.0100    0.0100    0.0100    0.0100    0.0100
    0.0100    0.0100    0.0100    0.0100    0.0100    0.0100    0.0100    0.0100
    0.0100    0.0100    0.0100    0.0100    0.0100    0.0100    0.0100    0.0100
    0.0100    0.0100    0.0100    0.0100    0.0100    0.0100    0.0100    0.0100
    0.0100    0.0100    0.0100    0.0100    0.0100    0.0100    0.0100    0.0100
    0.0100    0.0100    0.0100    0.0100    0.0100    0.0100    0.0100    0.0100
    0.0100    0.0100    0.0100    0.0100    0.0100    0.0100    0.0100    0.0100
    0.0100    0.0100    0.0100    0.0100    0.0100    0.0100    0.0100    0.0100
    0.0100    0.0100    0.0100    0.0100    0.0100    0.0100    0.0100    0.0100
    0.0100    0.0100    0.0100    0.0100    0.0100    0.0100    0.0100    0.0100
    0.0100    0.0100
   </PP_RAB>
 </PP_MESH>
  <PP_LOCAL type="real"  size=" 602" columns="4">
   -2.7958776111E+01   -2.7962522216E+01   -2.7975408442E+01   -2.7995055449E+01
   -2.8019083897E+01   -2.8044777931E+01   -2.8069482590E+01   -2.8090907893E+01
   -2.8107302333E+01   -2.8117501684E+01   -2.8120885205E+01   -2.8117278821E+01
   -2.8106839502E+01   -2.8089944318E+01   -2.8067096824E+01   -2.8038855263E+01
   -2.8005781960E+01   -2.7968410715E+01   -2.7927228202E+01   -2.7882665471E+01
   -2.7835096319E+01   -2.7784839883E+01   -2.7732165682E+01   -2.7677299703E+01
   -2.7620430739E+01   -2.7561716410E+01   -2.7501288643E+01   -2.7439258397E+01
   -2.7375719701E+01   -2.7310752962E+01   -2.7244427655E+01   -2.7176804472E+01
   -2.7107937008E+01   -2.7037873065E+01   -2.6966655652E+01   -2.6894323757E+01
   -2.6820912906E+01   -2.6746455600E+01   -2.6670981639E+01   -2.6594518347E+01
   -2.6517090763E+01   -2.6438721777E+01   -2.6359432232E+01   -2.6279241017E+01
   -2.6198165134E+01   -2.6116219763E+01   -2.6033418321E+01   -2.5949772513E+01
   -2.5865292395E+01   -2.5779986412E+01   -2.5693861464E+01   -2.5606922965E+01
   -2.5519174908E+01   -2.5430619907E+01   -2.5341259311E+01   -2.5251093234E+01
   -2.5160120682E+01   -2.5068339615E+01   -2.4975747067E+01   -2.4882339239E+01
   -2.4788111641E+01   -2.4693059189E+01   -2.4597176371E+01   -2.4500457368E+01
   -2.4402896220E+01   -2.4304486980E+01   -2.4205223874E+01   -2.4105101478E+01
   -2.4004114873E+01   -2.3902259803E+01   -2.3799532881E+01   -2.3695931716E+01
   -2.3591455067E+01   -2.3486102994E+01   -2.3379876973E+01   -2.3272780049E+01
   -2.3164816929E+01   -2.3055994054E+01   -2.2946319682E+01   -2.2835803935E+01
   -2.2724458841E+01   -2.2612298348E+01   -2.2499338324E+01   -2.2385596537E+01
   -2.2271092623E+01   -2.2155848038E+01   -2.2039885993E+01   -2.1923231380E+01
   -2.1805910688E+01   -2.1687951911E+01   -2.1569384447E+01   -2.1450238992E+01
   -2.1330547433E+01   -2.1210342738E+01   -2.1089658847E+01   -2.0968530559E+01
   -2.0846993412E+01   -2.0725083625E+01   -2.0602837954E+01   -2.0480293602E+01
   -2.0357488128E+01   -2.0234459363E+01   -2.0111245324E+01   -1.9987884145E+01
   -1.9864414001E+01   -1.9740873029E+01   -1.9617299272E+01   -1.9493730623E+01
   -1.9370204799E+01   -1.9246759210E+01   -1.9123430972E+01   -1.9000256852E+01
   -1.8877273274E+01   -1.8754516169E+01   -1.8632020985E+01   -1.8509822683E+01
   -1.8387955780E+01   -1.8266454069E+01   -1.8145350767E+01   -1.8024678530E+01
   -1.7904469377E+01   -1.7784754450E+01   -1.7665564277E+01   -1.7546928846E+01
   -1.7428876979E+01   -1.7311436873E+01   -1.7194636157E+01   -1.7078501183E+01
   -1.6963057583E+01   -1.6848330453E+01   -1.6734343402E+01   -1.6621119379E+01
   -1.6508680709E+01   -1.6397048084E+01   -1.6286241718E+01   -1.6176280822E+01
   -1.6067183149E+01   -1.5958966132E+01   -1.5851645567E+01   -1.5745236379E+01
   -1.5639752925E+01   -1.5535207614E+01   -1.5431612752E+01   -1.5328978938E+01
   -1.5227315898E+01   -1.5126632746E+01   -1.5026936639E+01   -1.4928234932E+01
   -1.4830532715E+01   -1.4733835003E+01   -1.4638145378E+01   -1.4543466402E+01
   -1.4449800183E+01   -1.4357146938E+01   -1.4265507306E+01   -1.4174879418E+01
   -1.4085262103E+01   -1.3996651917E+01   -1.3909045725E+01   -1.3822438678E+01
   -1.3736825754E+01   -1.3652200738E+01   -1.3568556844E+01   -1.3485886513E+01
   -1.3404181308E+01   -1.3323432344E+01   -1.3243629637E+01   -1.3164762973E+01
   -1.3086820905E+01   -1.3009791874E+01   -1.2933663034E+01   -1.2858421445E+01
   -1.2784052907E+01   -1.2710542985E+01   -1.2637876238E+01   -1.2566036378E+01
   -1.2495007458E+01   -1.2424773135E+01   -1.2355317778E+01   -1.2286626844E+01
   -1.2218685587E+01   -1.2151480950E+01   -1.2084999053E+01   -1.2019228158E+01
   -1.1954155234E+01   -1.1889769539E+01   -1.1826059234E+01   -1.1763014062E+01
   -1.1700623439E+01   -1.1638877482E+01   -1.1577766737E+01   -1.1517281641E+01
   -1.1457413650E+01   -1.1398153538E+01   -1.1339493273E+01   -1.1281424218E+01
   -1.1223938442E+01   -1.1167027986E+01   -1.1110684961E+01   -1.1054901871E+01
   -1.0999670917E+01   -1.0944984834E+01   -1.0890836113E+01   -1.0837217447E+01
   -1.0784121575E+01   -1.0731541190E+01   -1.0679469119E+01   -1.0627898056E+01
   -1.0576820933E+01   -1.0526230532E+01   -1.0476119736E+01   -1.0426482189E+01
   -1.0377310929E+01   -1.0328599862E+01   -1.0280342772E+01   -1.0232533384E+01
   -1.0185165806E+01   -1.0138233796E+01   -1.0091731627E+01   -1.0045653600E+01
   -9.9999938025E+00   -9.9547469240E+00   -9.9099073209E+00   -9.8654695737E+00
   -9.8214285187E+00   -9.7777786672E+00   -9.7345150533E+00   -9.6916326101E+00
   -9.6491261201E+00   -9.6069909307E+00   -9.5652220757E+00   -9.5238147426E+00
   -9.4827644352E+00   -9.4420663315E+00   -9.4017160126E+00   -9.3617091510E+00
   -9.3220410943E+00   -9.2827078026E+00   -9.2437051003E+00   -9.2050286029E+00
   -9.1666744904E+00   -9.1286386890E+00   -9.0909170667E+00   -9.0535059918E+00
   -9.0164015607E+00   -8.9795999091E+00   -8.9430975466E+00   -8.9068907289E+00
   -8.8709758131E+00   -8.8353494614E+00   -8.8000080926E+00   -8.7649482561E+00
   -8.7301667642E+00   -8.6956601985E+00   -8.6614252710E+00   -8.6274589440E+00
   -8.5937579627E+00   -8.5603191734E+00   -8.5271396893E+00   -8.4942164189E+00
   -8.4615463175E+00   -8.4291266485E+00   -8.3969544849E+00   -8.3650268665E+00
   -8.3333412068E+00   -8.3018947434E+00   -8.2706845798E+00   -8.2397082772E+00
   -8.2089632185E+00   -8.1784466134E+00   -8.1481561065E+00   -8.1180892228E+00
   -8.0882433338E+00   -8.0586160928E+00   -8.0292051840E+00   -8.0000081444E+00
   -7.9710226161E+00   -7.9422464401E+00   -7.9136773223E+00   -7.8853128781E+00
   -7.8571511007E+00   -7.8291898276E+00   -7.8014267532E+00   -7.7738599004E+00
   -7.7464872450E+00   -7.7193066478E+00   -7.6923160620E+00   -7.6655136246E+00
   -7.6388973683E+00   -7.6124651665E+00   -7.5862153083E+00   -7.5601459199E+00
   -7.5342550320E+00   -7.5085408367E+00   -7.4830016244E+00   -7.4576355987E+00
   -7.4324408371E+00   -7.4074157861E+00   -7.3825587426E+00   -7.3578679179E+00
   -7.3333416554E+00   -7.3089784102E+00   -7.2847765587E+00   -7.2607343333E+00
   -7.2368503136E+00   -7.2131229617E+00   -7.1895506798E+00   -7.1661318852E+00
   -7.1428652077E+00   -7.1197491713E+00   -7.0967822024E+00   -7.0739629110E+00
   -7.0512899450E+00   -7.0287618972E+00   -7.0063772266E+00   -6.9841347096E+00
   -6.9620330150E+00   -6.9400707749E+00   -6.9182465673E+00   -6.8965592297E+00
   -6.8750074829E+00   -6.8535899940E+00   -6.8323054707E+00   -6.8111527818E+00
   -6.7901307078E+00   -6.7692379559E+00   -6.7484733426E+00   -6.7278357716E+00
   -6.7073240800E+00   -6.6869370197E+00   -6.6666734964E+00   -6.6465324520E+00
   -6.6265127780E+00   -6.6066132749E+00   -6.5868329187E+00   -6.5671706937E+00
   -6.5476255432E+00   -6.5281963199E+00   -6.5088820524E+00   -6.4896817716E+00
   -6.4705944702E+00   -6.4516190562E+00   -6.4327545943E+00   -6.4140001663E+00
   -6.3953548114E+00   -6.3768174966E+00   -6.3583873073E+00   -6.3400633792E+00
   -6.3218447963E+00   -6.3037305877E+00   -6.2857198449E+00   -6.2678117607E+00
   -6.2500054618E+00   -6.2323000428E+00   -6.2146945879E+00   -6.1971883494E+00
   -6.1797804948E+00   -6.1624701872E+00   -6.1452564922E+00   -6.1281387228E+00
   -6.1111160852E+00   -6.0941877856E+00   -6.0773529465E+00   -6.0606108569E+00
   -6.0439607880E+00   -6.0274019831E+00   -6.0109336391E+00   -5.9945549957E+00
   -5.9782653952E+00   -5.9620641161E+00   -5.9459504334E+00   -5.9299235289E+00
   -5.9139828152E+00   -5.8981276043E+00   -5.8823572082E+00   -5.8666708771E+00
   -5.8510679602E+00   -5.8355478447E+00   -5.8201098748E+00   -5.8047533844E+00
   -5.7894776403E+00   -5.7742821072E+00   -5.7591661597E+00   -5.7441291724E+00
   -5.7291704648E+00   -5.7142894373E+00   -5.6994855388E+00   -5.6847581729E+00
   -5.6701067437E+00   -5.6555305643E+00   -5.6410291501E+00   -5.6266019375E+00
   -5.6122483581E+00   -5.5979678152E+00   -5.5837597093E+00   -5.5696235650E+00
   -5.5555588407E+00   -5.5415649942E+00   -5.5276414294E+00   -5.5137876336E+00
   -5.5000031294E+00   -5.4862874000E+00   -5.4726399287E+00   -5.4590601260E+00
   -5.4455475499E+00   -5.4321017251E+00   -5.4187221589E+00   -5.4054083589E+00
   -5.3921597469E+00   -5.3789759366E+00   -5.3658564598E+00   -5.3528008467E+00
   -5.3398086188E+00   -5.3268792407E+00   -5.3140123412E+00   -5.3012074723E+00
   -5.2884641864E+00   -5.2757820219E+00   -5.2631604776E+00   -5.2505991967E+00
   -5.2380977522E+00   -5.2256557172E+00   -5.2132726518E+00   -5.2009480761E+00
   -5.1886816519E+00   -5.1764729720E+00   -5.1643216296E+00   -5.1522272097E+00
   -5.1401892429E+00   -5.1282074129E+00   -5.1162813315E+00   -5.1044106107E+00
   -5.0925948624E+00   -5.0808336235E+00   -5.0691265959E+00   -5.0574734120E+00
   -5.0458737018E+00   -5.0343270954E+00   -5.0228331624E+00   -5.0113915899E+00
   -5.0000020416E+00   -4.9886641649E+00   -4.9773776069E+00   -4.9661419742E+00
   -4.9549569285E+00   -4.9438221685E+00   -4.9327373577E+00   -4.9217021599E+00
   -4.9107162215E+00   -4.8997791709E+00   -4.8888907432E+00   -4.8780506180E+00
   -4.8672584746E+00   -4.8565139923E+00   -4.8458167895E+00   -4.8351666089E+00
   -4.8245631549E+00   -4.8140061219E+00   -4.8034952043E+00   -4.7930300666E+00
   -4.7826103978E+00   -4.7722359472E+00   -4.7619064234E+00   -4.7516215348E+00
   -4.7413809900E+00   -4.7311844357E+00   -4.7210316486E+00   -4.7109223569E+00
   -4.7008562824E+00   -4.6908331475E+00   -4.6808526507E+00   -4.6709144984E+00
   -4.6610184692E+00   -4.6511642981E+00   -4.6413517202E+00   -4.6315804706E+00
   -4.6218502380E+00   -4.6121607934E+00   -4.6025119032E+00   -4.5929033148E+00
   -4.5833347757E+00   -4.5738060327E+00   -4.5643167717E+00   -4.5548668138E+00
   -4.5454559182E+00   -4.5360838442E+00   -4.5267503508E+00   -4.5174551824E+00
   -4.5081980684E+00   -4.4989788262E+00   -4.4897972264E+00   -4.4806530392E+00
   -4.4715460353E+00   -4.4624759606E+00   -4.4534425771E+00   -4.4444457028E+00
   -4.4354851186E+00   -4.4265606056E+00   -4.4176719451E+00   -4.4088188891E+00
   -4.4000012217E+00   -4.3912187649E+00   -4.3824713101E+00   -4.3737586485E+00
   -4.3650805715E+00   -4.3564368410E+00   -4.3478272534E+00   -4.3392516387E+00
   -4.3307097979E+00   -4.3222015320E+00   -4.3137266421E+00   -4.3052849036E+00
   -4.2968761158E+00   -4.2885001202E+00   -4.2801567272E+00   -4.2718457471E+00
   -4.2635669901E+00   -4.2553202487E+00   -4.2471053162E+00   -4.2389220494E+00
   -4.2307702672E+00   -4.2226497889E+00   -4.2145604335E+00   -4.2065020137E+00
   -4.1984743090E+00   -4.1904771939E+00   -4.1825104961E+00   -4.1745740431E+00
   -4.1666676625E+00   -4.1587911818E+00   -4.1509443842E+00   -4.1431271401E+00
   -4.1353392933E+00   -4.1275806794E+00   -4.1198511340E+00   -4.1121504928E+00
   -4.1044785654E+00   -4.0968351910E+00   -4.0892202388E+00   -4.0816335520E+00
   -4.0740749740E+00   -4.0665443480E+00   -4.0590415135E+00   -4.0515662718E+00
   -4.0441185195E+00   -4.0366981071E+00   -4.0293048853E+00   -4.0219387047E+00
   -4.0145994157E+00   -4.0072868409E+00   -4.0000008414E+00   -3.9927412960E+00
   -3.9855080623E+00   -3.9783009977E+00   -3.9711199599E+00   -3.9639648063E+00
   -3.9568353476E+00   -3.9497314940E+00   -3.9426531102E+00   -3.9356000604E+00
   -3.9285722088E+00   -3.9215694196E+00   -3.9145915414E+00   -3.9076384244E+00
   -3.9007099704E+00   -3.8938060500E+00   -3.8869265337E+00   -3.8800712919E+00
   -3.8732401953E+00   -3.8664330873E+00   -3.8596498497E+00   -3.8528903780E+00
   -3.8461545489E+00   -3.8394422389E+00   -3.8327533244E+00   -3.8260876820E+00
   -3.8194451541E+00   -3.8128256450E+00   -3.8062290477E+00   -3.7996552443E+00
   -3.7931041172E+00   -3.7865755487E+00   -3.7800694210E+00   -3.7735855789E+00
   -3.7671239408E+00   -3.7606844004E+00   -3.7542668455E+00   -3.7478711640E+00
   -3.7414972435E+00   -3.7351449719E+00   -3.7288141996E+00   -3.7225048509E+00
   -3.7162168239E+00   -3.7099500118E+00   -3.7037043075E+00   -3.6974796040E+00
   -3.6912757944E+00   -3.6850927379E+00   -3.6789303571E+00   -3.6727885579E+00
   -3.6666672385E+00   -3.6605662966E+00
  </PP_LOCAL>
 <PP_NONLOCAL>
   <PP_BETA.1
       type="real"
       size=" 602"
       columns="4"
       index="1"
       angular_momentum="0"
       cutoff_radius_index=" 234"
       cutoff_radius="    2.3300000000E+00" >
    0.0000000000E+00   -3.7781524875E-02   -7.5549101575E-02   -1.1328866275E-01
   -1.5098590354E-01   -1.8862616486E-01   -2.2619431923E-01   -2.6367465975E-01
   -3.0105079327E-01   -3.3830553828E-01   -3.7542082845E-01   -4.1237762233E-01
   -4.4915582017E-01   -4.8573418816E-01   -5.2209029105E-01   -5.5820043338E-01
   -5.9403961012E-01   -6.2958146700E-01   -6.6479827101E-01   -6.9966089146E-01
   -7.3413879189E-01   -7.6820003302E-01   -8.0181128705E-01   -8.3493786334E-01
   -8.6754374559E-01   -8.9959164053E-01   -9.3104303799E-01   -9.6185828241E-01
   -9.9199665538E-01   -1.0214164691E+00   -1.0500751705E+00   -1.0779294557E+00
   -1.1049353934E+00   -1.1310485595E+00   -1.1562241789E+00   -1.1804172744E+00
   -1.2035828278E+00   -1.2256759423E+00   -1.2466520125E+00   -1.2664669048E+00
   -1.2850771352E+00   -1.3024400540E+00   -1.3185140339E+00   -1.3332586589E+00
   -1.3466349151E+00   -1.3586053806E+00   -1.3691344152E+00   -1.3781883479E+00
   -1.3857356548E+00   -1.3917471560E+00   -1.3961961803E+00   -1.3990587307E+00
   -1.4003136526E+00   -1.3999428082E+00   -1.3979311794E+00   -1.3942670613E+00
   -1.3889421410E+00   -1.3819516494E+00   -1.3732944406E+00   -1.3629731142E+00
   -1.3509940473E+00   -1.3373675339E+00   -1.3221077480E+00   -1.3052328591E+00
   -1.2867650197E+00   -1.2667303480E+00   -1.2451589750E+00   -1.2220849873E+00
   -1.1975463822E+00   -1.1715850085E+00   -1.1442465341E+00   -1.1155803152E+00
   -1.0856393068E+00   -1.0544799444E+00   -1.0221620116E+00   -9.8874849329E-01
   -9.5430540765E-01   -9.1890163277E-01   -8.8260871817E-01   -8.4550068384E-01
   -8.0765380792E-01   -7.6914640361E-01   -7.3005858646E-01   -6.9047203284E-01
   -6.5046973059E-01   -6.1013572290E-01   -5.6955484644E-01   -5.2881246485E-01
   -4.8799419877E-01   -4.4718565334E-01   -4.0647214469E-01   -3.6593842634E-01