<UPF version="2.0.1">
  <PP_INFO>

 This pseudopotential file has been produced using the code
 ONCVPSP  (Optimized Norm-Conservinng Vanderbilt PSeudopotential)
 scalar-relativistic version 2.1.1, 03/26/2014 by D. R. Hamann
 The code is available through a link at URL www.mat-simresearch.com.
 Documentation with the package provides a full discription of the
 input data below.


 While it is not required under the terms of the GNU GPL, it is
 suggested that you cite D. R. Hamann, Phys. Rev. B 88, 085117 (2013)
 in any publication using these pseudopotentials.


 Copyright 2015 The Regents of the University of California
 
 This work is licensed under the Creative Commons Attribution-ShareAlike 
 4.0 International License. To view a copy of this license, visit 
 http://creativecommons.org/licenses/by-sa/4.0/ or send a letter to 
 Creative Commons, PO Box 1866, Mountain View, CA 94042, USA.
 
 This pseudopotential is part of the Schlipf-Gygi norm-conserving 
 pseudopotential library. Its construction parameters were tuned to 
 reproduce materials of a training set with very high accuracy and 
 should be suitable as a general purpose pseudopotential to treat a 
 variety of different compounds. For details of the construction and 
 testing of the pseudopotential please refer to:
 
 [insert reference to paper here]
 
 We kindly ask that you include this reference in all publications 
 associated to this pseudopotential.


    <PP_INPUTFILE>
# ATOM AND REFERENCE CONFIGURATION
# atsym  z    nc    nv    iexc   psfile
  Zn 30.00     3     4     4      upf
#
#   n    l    f        energy (Ha)
    1    0    2.00
    2    0    2.00
    2    1    6.00
    3    0    2.00
    3    1    6.00
    4    0    2.00
    3    2   10.00
#
# PSEUDOPOTENTIAL AND OPTIMIZATION
# lmax
    2
#
#   l,   rc,     ep,   ncon, nbas, qcut
    0   1.96594  -4.74920    5    8   6.06305
    1   2.06202  -3.06498    5    8   7.61952
    2   2.06202  -0.37265    5    8   7.96873
#
# LOCAL POTENTIAL
# lloc, lpopt,  rc(5),   dvloc0
    4    5   1.68354      0.00000
#
# VANDERBILT-KLEINMAN-BYLANDER PROJECTORs
# l, nproj, debl
    0    2   4.52948
    1    2   3.02399
    2    2   0.66314
#
# MODEL CORE CHARGE
# icmod, fcfact
    0   0.00000
#
# LOG DERIVATIVE ANALYSIS
# epsh1, epsh2, depsh
   -5.00    3.00    0.02
#
# OUTPUT GRID
# rlmax, drl
    6.00    0.01
#
# TEST CONFIGURATIONS
# ncnf
    0
# nvcnf
#   n    l    f
    </PP_INPUTFILE>
  </PP_INFO>
  <!--                               -->
  <!-- END OF HUMAN READABLE SECTION -->
  <!--                               -->
    <PP_HEADER
       generated="Generated using ONCVPSP code by D. R. Hamann"
       author="Martin Schlipf and Francois Gygi"
       date="150105"
       comment=""
       element="Zn"
       pseudo_type="NC"
       relativistic="scalar"
       is_ultrasoft="F"
       is_paw="F"
       is_coulomb="F"
       has_so="F"
       has_wfc="F"
       has_gipaw="F"
       core_correction="F"
       functional="PBE"
       z_valence="   20.00"
       total_psenergy="  -2.00125974563E+02"
       rho_cutoff="   6.01000000000E+00"
       l_max="2"
       l_local="-1"
       mesh_size="   602"
       number_of_wfc="0"
       number_of_proj="6"/>
 <PP_MESH>
   <PP_R type="real"  size=" 602" columns="8">
    0.0000    0.0100    0.0200    0.0300    0.0400    0.0500    0.0600    0.0700
    0.0800    0.0900    0.1000    0.1100    0.1200    0.1300    0.1400    0.1500
    0.1600    0.1700    0.1800    0.1900    0.2000    0.2100    0.2200    0.2300
    0.2400    0.2500    0.2600    0.2700    0.2800    0.2900    0.3000    0.3100
    0.3200    0.3300    0.3400    0.3500    0.3600    0.3700    0.3800    0.3900
    0.4000    0.4100    0.4200    0.4300    0.4400    0.4500    0.4600    0.4700
    0.4800    0.4900    0.5000    0.5100    0.5200    0.5300    0.5400    0.5500
    0.5600    0.5700    0.5800    0.5900    0.6000    0.6100    0.6200    0.6300
    0.6400    0.6500    0.6600    0.6700    0.6800    0.6900    0.7000    0.7100
    0.7200    0.7300    0.7400    0.7500    0.7600    0.7700    0.7800    0.7900
    0.8000    0.8100    0.8200    0.8300    0.8400    0.8500    0.8600    0.8700
    0.8800    0.8900    0.9000    0.9100    0.9200    0.9300    0.9400    0.9500
    0.9600    0.9700    0.9800    0.9900    1.0000    1.0100    1.0200    1.0300
    1.0400    1.0500    1.0600    1.0700    1.0800    1.0900    1.1000    1.1100
    1.1200    1.1300    1.1400    1.1500    1.1600    1.1700    1.1800    1.1900
    1.2000    1.2100    1.2200    1.2300    1.2400    1.2500    1.2600    1.2700
    1.2800    1.2900    1.3000    1.3100    1.3200    1.3300    1.3400    1.3500
    1.3600    1.3700    1.3800    1.3900    1.4000    1.4100    1.4200    1.4300
    1.4400    1.4500    1.4600    1.4700    1.4800    1.4900    1.5000    1.5100
    1.5200    1.5300    1.5400    1.5500    1.5600    1.5700    1.5800    1.5900
    1.6000    1.6100    1.6200    1.6300    1.6400    1.6500    1.6600    1.6700
    1.6800    1.6900    1.7000    1.7100    1.7200    1.7300    1.7400    1.7500
    1.7600    1.7700    1.7800    1.7900    1.8000    1.8100    1.8200    1.8300
    1.8400    1.8500    1.8600    1.8700    1.8800    1.8900    1.9000    1.9100
    1.9200    1.9300    1.9400    1.9500    1.9600    1.9700    1.9800    1.9900
    2.0000    2.0100    2.0200    2.0300    2.0400    2.0500    2.0600    2.0700
    2.0800    2.0900    2.1000    2.1100    2.1200    2.1300    2.1400    2.1500
    2.1600    2.1700    2.1800    2.1900    2.2000    2.2100    2.2200    2.2300
    2.2400    2.2500    2.2600    2.2700    2.2800    2.2900    2.3000    2.3100
    2.3200    2.3300    2.3400    2.3500    2.3600    2.3700    2.3800    2.3900
    2.4000    2.4100    2.4200    2.4300    2.4400    2.4500    2.4600    2.4700
    2.4800    2.4900    2.5000    2.5100    2.5200    2.5300    2.5400    2.5500
    2.5600    2.5700    2.5800    2.5900    2.6000    2.6100    2.6200    2.6300
    2.6400    2.6500    2.6600    2.6700    2.6800    2.6900    2.7000    2.7100
    2.7200    2.7300    2.7400    2.7500    2.7600    2.7700    2.7800    2.7900
    2.8000    2.8100    2.8200    2.8300    2.8400    2.8500    2.8600    2.8700
    2.8800    2.8900    2.9000    2.9100    2.9200    2.9300    2.9400    2.9500
    2.9600    2.9700    2.9800    2.9900    3.0000    3.0100    3.0200    3.0300
    3.0400    3.0500    3.0600    3.0700    3.0800    3.0900    3.1000    3.1100
    3.1200    3.1300    3.1400    3.1500    3.1600    3.1700    3.1800    3.1900
    3.2000    3.2100    3.2200    3.2300    3.2400    3.2500    3.2600    3.2700
    3.2800    3.2900    3.3000    3.3100    3.3200    3.3300    3.3400    3.3500
    3.3600    3.3700    3.3800    3.3900    3.4000    3.4100    3.4200    3.4300
    3.4400    3.4500    3.4600    3.4700    3.4800    3.4900    3.5000    3.5100
    3.5200    3.5300    3.5400    3.5500    3.5600    3.5700    3.5800    3.5900
    3.6000    3.6100    3.6200    3.6300    3.6400    3.6500    3.6600    3.6700
    3.6800    3.6900    3.7000    3.7100    3.7200    3.7300    3.7400    3.7500
    3.7600    3.7700    3.7800    3.7900    3.8000    3.8100    3.8200    3.8300
    3.8400    3.8500    3.8600    3.8700    3.8800    3.8900    3.9000    3.9100
    3.9200    3.9300    3.9400    3.9500    3.9600    3.9700    3.9800    3.9900
    4.0000    4.0100    4.0200    4.0300    4.0400    4.0500    4.0600    4.0700
    4.0800    4.0900    4.1000    4.1100    4.1200    4.1300    4.1400    4.1500
    4.1600    4.1700    4.1800    4.1900    4.2000    4.2100    4.2200    4.2300
    4.2400    4.2500    4.2600    4.2700    4.2800    4.2900    4.3000    4.3100
    4.3200    4.3300    4.3400    4.3500    4.3600    4.3700    4.3800    4.3900
    4.4000    4.4100    4.4200    4.4300    4.4400    4.4500    4.4600    4.4700
    4.4800    4.4900    4.5000    4.5100    4.5200    4.5300    4.5400    4.5500
    4.5600    4.5700    4.5800    4.5900    4.6000    4.6100    4.6200    4.6300
    4.6400    4.6500    4.6600    4.6700    4.6800    4.6900    4.7000    4.7100
    4.7200    4.7300    4.7400    4.7500    4.7600    4.7700    4.7800    4.7900
    4.8000    4.8100    4.8200    4.8300    4.8400    4.8500    4.8600    4.8700
    4.8800    4.8900    4.9000    4.9100    4.9200    4.9300    4.9400    4.9500
    4.9600    4.9700    4.9800    4.9900    5.0000    5.0100    5.0200    5.0300
    5.0400    5.0500    5.0600    5.0700    5.0800    5.0900    5.1000    5.1100
    5.1200    5.1300    5.1400    5.1500    5.1600    5.1700    5.1800    5.1900
    5.2000    5.2100    5.2200    5.2300    5.2400    5.2500    5.2600    5.2700
    5.2800    5.2900    5.3000    5.3100    5.3200    5.3300    5.3400    5.3500
    5.3600    5.3700    5.3800    5.3900    5.4000    5.4100    5.4200    5.4300
    5.4400    5.4500    5.4600    5.4700    5.4800    5.4900    5.5000    5.5100
    5.5200    5.5300    5.5400    5.5500    5.5600    5.5700    5.5800    5.5900
    5.6000    5.6100    5.6200    5.6300    5.6400    5.6500    5.6600    5.6700
    5.6800    5.6900    5.7000    5.7100    5.7200    5.7300    5.7400    5.7500
    5.7600    5.7700    5.7800    5.7900    5.8000    5.8100    5.8200    5.8300
    5.8400    5.8500    5.8600    5.8700    5.8800    5.8900    5.9000    5.9100
    5.9200    5.9300    5.9400    5.9500    5.9600    5.9700    5.9800    5.9900
    6.0000    6.0100
   </PP_R>
   <PP_RAB type="real"  size=" 602" columns="8">
    0.0100    0.0100    0.0100    0.0100    0.0100    0.0100    0.0100    0.0100
    0.0100    0.0100    0.0100    0.0100    0.0100    0.0100    0.0100    0.0100
    0.0100    0.0100    0.0100    0.0100    0.0100    0.0100    0.0100    0.0100
    0.0100    0.0100    0.0100    0.0100    0.0100    0.0100    0.0100    0.0100
    0.0100    0.0100    0.0100    0.0100    0.0100    0.0100    0.0100    0.0100
    0.0100    0.0100    0.0100    0.0100    0.0100    0.0100    0.0100    0.0100
    0.0100    0.0100    0.0100    0.0100    0.0100    0.0100    0.0100    0.0100
    0.0100    0.0100    0.0100    0.0100    0.0100    0.0100    0.0100    0.0100
    0.0100    0.0100    0.0100    0.0100    0.0100    0.0100    0.0100    0.0100
    0.0100    0.0100    0.0100    0.0100    0.0100    0.0100    0.0100    0.0100
    0.0100    0.0100    0.0100    0.0100    0.0100    0.0100    0.0100    0.0100
    0.0100    0.0100    0.0100    0.0100    0.0100    0.0100    0.0100    0.0100
    0.0100    0.0100    0.0100    0.0100    0.0100    0.0100    0.0100    0.0100
    0.0100    0.0100    0.0100    0.0100    0.0100    0.0100    0.0100    0.0100
    0.0100    0.0100    0.0100    0.0100    0.0100    0.0100    0.0100    0.0100
    0.0100    0.0100    0.0100    0.0100    0.0100    0.0100    0.0100    0.0100
    0.0100    0.0100    0.0100    0.0100    0.0100    0.0100    0.0100    0.0100
    0.0100    0.0100    0.0100    0.0100    0.0100    0.0100    0.0100    0.0100
    0.0100    0.0100    0.0100    0.0100    0.0100    0.0100    0.0100    0.0100
    0.0100    0.0100    0.0100    0.0100    0.0100    0.0100    0.0100    0.0100
    0.0100    0.0100    0.0100    0.0100    0.0100    0.0100    0.0100    0.0100
    0.0100    0.0100    0.0100    0.0100    0.0100    0.0100    0.0100    0.0100
    0.0100    0.0100    0.0100    0.0100    0.0100    0.0100    0.0100    0.0100
    0.0100    0.0100    0.0100    0.0100    0.0100    0.0100    0.0100    0.0100
    0.0100    0.0100    0.0100    0.0100    0.0100    0.0100    0.0100    0.0100
    0.0100    0.0100    0.0100    0.0100    0.0100    0.0100    0.0100    0.0100
    0.0100    0.0100    0.0100    0.0100    0.0100    0.0100    0.0100    0.0100
    0.0100    0.0100    0.0100    0.0100    0.0100    0.0100    0.0100    0.0100
    0.0100    0.0100    0.0100    0.0100    0.0100    0.0100    0.0100    0.0100
    0.0100    0.0100    0.0100    0.0100    0.0100    0.0100    0.0100    0.0100
    0.0100    0.0100    0.0100    0.0100    0.0100    0.0100    0.0100    0.0100
    0.0100    0.0100    0.0100    0.0100    0.0100    0.0100    0.0100    0.0100
    0.0100    0.0100    0.0100    0.0100    0.0100    0.0100    0.0100    0.0100
    0.0100    0.0100    0.0100    0.0100    0.0100    0.0100    0.0100    0.0100
    0.0100    0.0100    0.0100    0.0100    0.0100    0.0100    0.0100    0.0100
    0.0100    0.0100    0.0100    0.0100    0.0100    0.0100    0.0100    0.0100
    0.0100    0.0100    0.0100    0.0100    0.0100    0.0100    0.0100    0.0100
    0.0100    0.0100    0.0100    0.0100    0.0100    0.0100    0.0100    0.0100
    0.0100    0.0100    0.0100    0.0100    0.0100    0.0100    0.0100    0.0100
    0.0100    0.0100    0.0100    0.0100    0.0100    0.0100    0.0100    0.0100
    0.0100    0.0100    0.0100    0.0100    0.0100    0.0100    0.0100    0.0100
    0.0100    0.0100    0.0100    0.0100    0.0100    0.0100    0.0100    0.0100
    0.0100    0.0100    0.0100    0.0100    0.0100    0.0100    0.0100    0.0100
    0.0100    0.0100    0.0100    0.0100    0.0100    0.0100    0.0100    0.0100
    0.0100    0.0100    0.0100    0.0100    0.0100    0.0100    0.0100    0.0100
    0.0100    0.0100    0.0100    0.0100    0.0100    0.0100    0.0100    0.0100
    0.0100    0.0100    0.0100    0.0100    0.0100    0.0100    0.0100    0.0100
    0.0100    0.0100    0.0100    0.0100    0.0100    0.0100    0.0100    0.0100
    0.0100    0.0100    0.0100    0.0100    0.0100    0.0100    0.0100    0.0100
    0.0100    0.0100    0.0100    0.0100    0.0100    0.0100    0.0100    0.0100
    0.0100    0.0100    0.0100    0.0100    0.0100    0.0100    0.0100    0.0100
    0.0100    0.0100    0.0100    0.0100    0.0100    0.0100    0.0100    0.0100
    0.0100    0.0100    0.0100    0.0100    0.0100    0.0100    0.0100    0.0100
    0.0100    0.0100    0.0100    0.0100    0.0100    0.0100    0.0100    0.0100
    0.0100    0.0100    0.0100    0.0100    0.0100    0.0100    0.0100    0.0100
    0.0100    0.0100    0.0100    0.0100    0.0100    0.0100    0.0100    0.0100
    0.0100    0.0100    0.0100    0.0100    0.0100    0.0100    0.0100    0.0100
    0.0100    0.0100    0.0100    0.0100    0.0100    0.0100    0.0100    0.0100
    0.0100    0.0100    0.0100    0.0100    0.0100    0.0100    0.0100    0.0100
    0.0100    0.0100    0.0100    0.0100    0.0100    0.0100    0.0100    0.0100
    0.0100    0.0100    0.0100    0.0100    0.0100    0.0100    0.0100    0.0100
    0.0100    0.0100    0.0100    0.0100    0.0100    0.0100    0.0100    0.0100
    0.0100    0.0100    0.0100    0.0100    0.0100    0.0100    0.0100    0.0100
    0.0100    0.0100    0.0100    0.0100    0.0100    0.0100    0.0100    0.0100
    0.0100    0.0100    0.0100    0.0100    0.0100    0.0100    0.0100    0.0100
    0.0100    0.0100    0.0100    0.0100    0.0100    0.0100    0.0100    0.0100
    0.0100    0.0100    0.0100    0.0100    0.0100    0.0100    0.0100    0.0100
    0.0100    0.0100    0.0100    0.0100    0.0100    0.0100    0.0100    0.0100
    0.0100    0.0100    0.0100    0.0100    0.0100    0.0100    0.0100    0.0100
    0.0100    0.0100    0.0100    0.0100    0.0100    0.0100    0.0100    0.0100
    0.0100    0.0100    0.0100    0.0100    0.0100    0.0100    0.0100    0.0100
    0.0100    0.0100    0.0100    0.0100    0.0100    0.0100    0.0100    0.0100
    0.0100    0.0100    0.0100    0.0100    0.0100    0.0100    0.0100    0.0100
    0.0100    0.0100    0.0100    0.0100    0.0100    0.0100    0.0100    0.0100
    0.0100    0.0100    0.0100    0.0100    0.0100    0.0100    0.0100    0.0100
    0.0100    0.0100
   </PP_RAB>
 </PP_MESH>
  <PP_LOCAL type="real"  size=" 602" columns="4">
   -5.4465957022E+01   -5.4465001600E+01   -5.4462375279E+01   -5.4457790252E+01
   -5.4450958708E+01   -5.4441521198E+01   -5.4429081055E+01   -5.4413238324E+01
   -5.4393618995E+01   -5.4369896887E+01   -5.4341807197E+01   -5.4309152134E+01
   -5.4271800037E+01   -5.4229679764E+01   -5.4182772225E+01   -5.4131100605E+01
   -5.4074720519E+01   -5.4013710876E+01   -5.3948165938E+01   -5.3878188738E+01
   -5.3803885879E+01   -5.3725363582E+01   -5.3642724820E+01   -5.3556067343E+01
   -5.3465482405E+01   -5.3371054026E+01   -5.3272858644E+01   -5.3170965042E+01
   -5.3065434458E+01   -5.2956320815E+01   -5.2843671001E+01   -5.2727525184E+01
   -5.2607917128E+01   -5.2484874482E+01   -5.2358419054E+01   -5.2228567061E+01
   -5.2095329322E+01   -5.1958711464E+01   -5.1818714089E+01   -5.1675332913E+01
   -5.1528558941E+01   -5.1378378642E+01   -5.1224774150E+01   -5.1067723514E+01
   -5.0907201020E+01   -5.0743177587E+01   -5.0575621269E+01   -5.0404497876E+01
   -5.0229771713E+01   -5.0051406454E+01   -4.9869366175E+01   -4.9683616485E+01
   -4.9494125776E+01   -4.9300866655E+01   -4.9103817213E+01   -4.8902962658E+01
   -4.8698296550E+01   -4.8489822275E+01   -4.8277554153E+01   -4.8061518636E+01
   -4.7841754800E+01   -4.7618315476E+01   -4.7391266779E+01   -4.7160688813E+01
   -4.6926675018E+01   -4.6689331382E+01   -4.6448776157E+01   -4.6205138491E+01
   -4.5958557207E+01   -4.5709179473E+01   -4.5457159792E+01   -4.5202658220E+01
   -4.4945839147E+01   -4.4686870011E+01   -4.4425920111E+01   -4.4163159534E+01
   -4.3898758168E+01   -4.3632884896E+01   -4.3365706905E+01   -4.3097389122E+01
   -4.2828093754E+01   -4.2557979940E+01   -4.2287203470E+01   -4.2015916590E+01
   -4.1744267851E+01   -4.1472402000E+01   -4.1200459905E+01   -4.0928578487E+01
   -4.0656890668E+01   -4.0385525312E+01   -4.0114607166E+01   -3.9844256786E+01
   -3.9574590451E+01   -3.9305720065E+01   -3.9037753037E+01   -3.8770792151E+01
   -3.8504935549E+01   -3.8240276250E+01   -3.7976902160E+01   -3.7714895924E+01
   -3.7454334696E+01   -3.7195289950E+01   -3.6937827313E+01   -3.6682006752E+01
   -3.6427881207E+01   -3.6175497577E+01   -3.5924896272E+01   -3.5676111144E+01
   -3.5429170095E+01   -3.5184093078E+01   -3.4940894074E+01   -3.4699580753E+01
   -3.4460155176E+01   -3.4222612685E+01   -3.3986943217E+01   -3.3753132161E+01
   -3.3521161027E+01   -3.3291006662E+01   -3.3062643567E+01   -3.2836044452E+01
   -3.2611180525E+01   -3.2388022925E+01   -3.2166543753E+01   -3.1946715738E+01
   -3.1728515279E+01   -3.1511921714E+01   -3.1296916718E+01   -3.1083488524E+01
   -3.0871629571E+01   -3.0661335292E+01   -3.0452609530E+01   -3.0245459697E+01
   -3.0039896661E+01   -2.9835939201E+01   -2.9633607779E+01   -2.9432927115E+01
   -2.9233925990E+01   -2.9036634004E+01   -2.8841083840E+01   -2.8647308099E+01
   -2.8455340289E+01   -2.8265212277E+01   -2.8076955529E+01   -2.7890598553E+01
   -2.7706166336E+01   -2.7523682645E+01   -2.7343162302E+01   -2.7164621216E+01
   -2.6988063427E+01   -2.6813491821E+01   -2.6640900961E+01   -2.6470278310E+01
   -2.6301608572E+01   -2.6134864233E+01   -2.5970020181E+01   -2.5807037272E+01
   -2.5645879933E+01   -2.5486503255E+01   -2.5328864167E+01   -2.5172915888E+01
   -2.5018613353E+01   -2.4865911576E+01   -2.4714769150E+01   -2.4565146385E+01
   -2.4417009833E+01   -2.4270327894E+01   -2.4125077148E+01   -2.3981235569E+01
   -2.3838789520E+01   -2.3697726137E+01   -2.3558040355E+01   -2.3419728189E+01
   -2.3282791090E+01   -2.3147232507E+01   -2.3013057383E+01   -2.2880272594E+01
   -2.2748883862E+01   -2.2618897499E+01   -2.2490318113E+01   -2.2363148112E+01
   -2.2237389850E+01   -2.2113039628E+01   -2.1990096862E+01   -2.1868550967E+01
   -2.1748397736E+01   -2.1629621014E+01   -2.1512210423E+01   -2.1396147452E+01
   -2.1281415228E+01   -2.1167993657E+01   -2.1055860740E+01   -2.0944994995E+01
   -2.0835371386E+01   -2.0726966821E+01   -2.0619755583E+01   -2.0513712690E+01
   -2.0408813294E+01   -2.0305032141E+01   -2.0202344664E+01   -2.0100727648E+01
   -2.0000155991E+01   -1.9900609656E+01   -1.9802065349E+01   -1.9704504100E+01
   -1.9607907346E+01   -1.9512255727E+01   -1.9417535760E+01   -1.9323730069E+01
   -1.9230826301E+01   -1.9138811544E+01   -1.9047672680E+01   -1.8957398065E+01
   -1.8867975224E+01   -1.8779392394E+01   -1.8691637541E+01   -1.8604698684E+01
   -1.8518565087E+01   -1.8433225159E+01   -1.8348668261E+01   -1.8264883762E+01
   -1.8181860637E+01   -1.8099589116E+01   -1.8018058719E+01   -1.7937259467E+01
   -1.7857181892E+01   -1.7777815845E+01   -1.7699152295E+01   -1.7621181963E+01
   -1.7543895306E+01   -1.7467283877E+01   -1.7391338610E+01   -1.7316050762E+01
   -1.7241412177E+01   -1.7167414098E+01   -1.7094048506E+01   -1.7021307519E+01
   -1.6949182698E+01   -1.6877666666E+01   -1.6806751778E+01   -1.6736430015E+01
   -1.6666694465E+01   -1.6597537718E+01   -1.6528952285E+01   -1.6460931537E+01
   -1.6393468358E+01   -1.6326555727E+01   -1.6260187291E+01   -1.6194356231E+01
   -1.6129055934E+01   -1.6064280322E+01   -1.6000022871E+01   -1.5936277321E+01
   -1.5873037865E+01   -1.5810298279E+01   -1.5748052596E+01   -1.5686295286E+01
   -1.5625020422E+01   -1.5564222283E+01   -1.5503895613E+01   -1.5444034780E+01
   -1.5384634262E+01   -1.5325689078E+01   -1.5267193899E+01   -1.5209143356E+01
   -1.5151532740E+01   -1.5094357021E+01   -1.5037610945E+01   -1.4981290073E+01
   -1.4925389646E+01   -1.4869904585E+01   -1.4814830621E+01   -1.4760163247E+01
   -1.4705897678E+01   -1.4652029663E+01   -1.4598554982E+01   -1.4545469152E+01
   -1.4492767900E+01   -1.4440447295E+01   -1.4388503158E+01   -1.4336931168E+01
   -1.4285727671E+01   -1.4234888733E+01   -1.4184410158E+01   -1.4134288364E+01
   -1.4084519664E+01   -1.4035100162E+01   -1.3986026151E+01   -1.3937294236E+01
   -1.3888900835E+01   -1.3840842093E+01   -1.3793114895E+01   -1.3745715832E+01
   -1.3698641317E+01   -1.3651888078E+01   -1.3605452998E+01   -1.3559332806E+01
   -1.3513524017E+01   -1.3468023802E+01   -1.3422829063E+01   -1.3377936542E+01
   -1.3333343240E+01   -1.3289046340E+01   -1.3245042891E+01   -1.3201329673E+01
   -1.3157904115E+01   -1.3114763414E+01   -1.3071904659E+01   -1.3029324985E+01
   -1.2987021894E+01   -1.2944992701E+01   -1.2903234540E+01   -1.2861744895E+01
   -1.2820521302E+01   -1.2779561201E+01   -1.2738861786E+01   -1.2698420842E+01
   -1.2658235943E+01   -1.2618304596E+01   -1.2578624227E+01   -1.2539192717E+01
   -1.2500007739E+01   -1.2461066864E+01   -1.2422367753E+01   -1.2383908345E+01
   -1.2345686421E+01   -1.2307699624E+01   -1.2269945816E+01   -1.2232422996E+01
   -1.2195129050E+01   -1.2158061702E+01   -1.2121218975E+01   -1.2084598939E+01
   -1.2048199577E+01   -1.2012018704E+01   -1.1976054469E+01   -1.1940305020E+01
   -1.1904768434E+01   -1.1869442620E+01   -1.1834325823E+01   -1.1799416276E+01
   -1.1764712147E+01   -1.1730211444E+01   -1.1695912479E+01   -1.1661813576E+01
   -1.1627912988E+01   -1.1594208832E+01   -1.1560699455E+01   -1.1527383280E+01
   -1.1494258643E+01   -1.1461323771E+01   -1.1428577024E+01   -1.1396016930E+01
   -1.1363641900E+01   -1.1331450282E+01   -1.1299440422E+01   -1.1267610956E+01
   -1.1235960370E+01   -1.1204487136E+01   -1.1173189566E+01   -1.1142066406E+01
   -1.1111116212E+01   -1.1080337542E+01   -1.1049728794E+01   -1.1019288687E+01
   -1.0989015890E+01   -1.0958909026E+01   -1.0928966631E+01   -1.0899187333E+01
   -1.0869569931E+01   -1.0840113112E+01   -1.0810815554E+01   -1.0781675779E+01
   -1.0752692713E+01   -1.0723865107E+01   -1.0695191709E+01   -1.0666671151E+01
   -1.0638302259E+01   -1.0610083915E+01   -1.0582014925E+01   -1.0554094075E+01
   -1.0526320040E+01   -1.0498691843E+01   -1.0471208346E+01   -1.0443868413E+01
   -1.0416670800E+01   -1.0389614429E+01   -1.0362698291E+01   -1.0335921303E+01
   -1.0309282381E+01   -1.0282780271E+01   -1.0256414102E+01   -1.0230182845E+01
   -1.0204085465E+01   -1.0178120873E+01   -1.0152287989E+01   -1.0126585945E+01
   -1.0101013753E+01   -1.0075570430E+01   -1.0050254887E+01   -1.0025066200E+01
   -1.0000003497E+01   -9.9750658393E+00   -9.9502522862E+00   -9.9255617616E+00
   -9.9009934713E+00   -9.8765465465E+00   -9.8522200914E+00   -9.8280132082E+00
   -9.8039248476E+00   -9.7799543106E+00   -9.7561007430E+00   -9.7323632906E+00
   -9.7087410789E+00   -9.6852331435E+00   -9.6618388051E+00   -9.6385572493E+00
   -9.6153876619E+00   -9.5923291994E+00   -9.5693809593E+00   -9.5465422887E+00
   -9.5238124112E+00   -9.5011905505E+00   -9.4786759022E+00   -9.4562676027E+00
   -9.4339650329E+00   -9.4117674526E+00   -9.3896741215E+00   -9.3676842814E+00
   -9.3457970869E+00   -9.3240119591E+00   -9.3023281921E+00   -9.2807450803E+00
   -9.2592619180E+00   -9.2378778592E+00   -9.2165923704E+00   -9.1954047790E+00
   -9.1743144121E+00   -9.1533205969E+00   -9.1324225473E+00   -9.1116197024E+00
   -9.0909114469E+00   -9.0702971393E+00   -9.0497761382E+00   -9.0293477239E+00
   -9.0090112900E+00   -8.9887662844E+00   -8.9686120955E+00   -8.9485481115E+00
   -8.9285736858E+00   -8.9086881506E+00   -8.8888910210E+00   -8.8691817137E+00
   -8.8495596457E+00   -8.8300242340E+00   -8.8105747810E+00   -8.7912108265E+00
   -8.7719318296E+00   -8.7527372344E+00   -8.7336264849E+00   -8.7145989673E+00
   -8.6956541245E+00   -8.6767914965E+00   -8.6580105534E+00   -8.6393107651E+00
   -8.6206916016E+00   -8.6021524166E+00   -8.5836928126E+00   -8.5653122908E+00
   -8.5470103459E+00   -8.5287864725E+00   -8.5106401190E+00   -8.4925707592E+00
   -8.4745779869E+00   -8.4566613203E+00   -8.4388202775E+00   -8.4210543769E+00
   -8.4033630487E+00   -8.3857458843E+00   -8.3682024553E+00   -8.3507323023E+00
   -8.3333349659E+00   -8.3160099822E+00   -8.2987567875E+00   -8.2815750532E+00
   -8.2644643413E+00   -8.2474242140E+00   -8.2304542333E+00   -8.2135539304E+00
   -8.1967228209E+00   -8.1799605696E+00   -8.1632667588E+00   -8.1466409712E+00
   -8.1300827891E+00   -8.1135917474E+00   -8.0971674207E+00   -8.0808094743E+00
   -8.0645175100E+00   -8.0482911298E+00   -8.0321299357E+00   -8.0160334734E+00
   -8.0000013577E+00   -7.9840332615E+00   -7.9681288052E+00   -7.9522876094E+00
   -7.9365092944E+00   -7.9207934241E+00   -7.9051396353E+00   -7.8895476155E+00
   -7.8740170029E+00   -7.8585474356E+00   -7.8431385517E+00   -7.8277899395E+00
   -7.8125012412E+00   -7.7972721654E+00   -7.7821023670E+00   -7.7669915011E+00
   -7.7519392227E+00   -7.7369451508E+00   -7.7220089169E+00   -7.7071302570E+00
   -7.6923088420E+00   -7.6775443431E+00   -7.6628364314E+00   -7.6481847625E+00
   -7.6335889427E+00   -7.6190487407E+00   -7.6045638429E+00   -7.5901339356E+00
   -7.5757587053E+00   -7.5614378384E+00   -7.5471709373E+00   -7.5329577734E+00
   -7.5187980593E+00   -7.5046914959E+00   -7.4906377843E+00   -7.4766366256E+00
   -7.4626876705E+00   -7.4487906334E+00   -7.4349452730E+00   -7.4211513045E+00
   -7.4074084428E+00   -7.3937164027E+00   -7.3800748895E+00   -7.3664835480E+00
   -7.3529421875E+00   -7.3394505361E+00   -7.3260083220E+00   -7.3126152736E+00
   -7.2992711191E+00   -7.2859755325E+00   -7.2727282679E+00   -7.2595291019E+00
   -7.2463777752E+00   -7.2332740289E+00   -7.2202176038E+00   -7.2072082388E+00
   -7.1942455926E+00   -7.1813295024E+00   -7.1684597210E+00   -7.1556360015E+00
   -7.1428580969E+00   -7.1301257600E+00   -7.1174387127E+00   -7.1047966888E+00
   -7.0921995070E+00   -7.0796469317E+00   -7.0671387275E+00   -7.0546746588E+00
   -7.0422544901E+00   -7.0298779339E+00   -7.0175447817E+00   -7.0052548404E+00
   -6.9930078855E+00   -6.9808036925E+00   -6.9686420368E+00   -6.9565226939E+00
   -6.9444453741E+00   -6.9324099100E+00   -6.9204161036E+00   -6.9084637408E+00
   -6.8965526075E+00   -6.8846824897E+00   -6.8728531732E+00   -6.8610643730E+00
   -6.8493159467E+00   -6.8376076982E+00   -6.8259394234E+00   -6.8143109182E+00
   -6.8027219784E+00   -6.7911724000E+00   -6.7796619083E+00   -6.7681903716E+00
   -6.7567576018E+00   -6.7453634045E+00   -6.7340075849E+00   -6.7226899485E+00
   -6.7114103007E+00   -6.7001683830E+00   -6.6889640603E+00   -6.6777971590E+00
   -6.6666674934E+00   -6.6555748780E+00
  </PP_LOCAL>
 <PP_NONLOCAL>
   <PP_BETA.1
       type="real"
       size=" 602"
       columns="4"
       index="1"
       angular_momentum="0"
       cutoff_radius_index=" 210"
       cutoff_radius="    2.0900000000E+00" >
    0.0000000000E+00   -4.3829663083E-02   -8.7606208644E-02   -1.3127664085E-01
   -1.7478820668E-01   -2.1808851603E-01   -2.6112566007E-01   -3.0384832757E-01
   -3.4620591852E-01   -3.8814865458E-01   -4.2962768597E-01   -4.7059519419E-01
   -5.1100449036E-01   -5.5081010862E-01   -5.8996789428E-01   -6.2843508643E-01
   -6.6617039471E-01   -7.0313406995E-01   -7.3928796851E-01   -7.7459561014E-01
   -8.0902222918E-01   -8.4253481920E-01   -8.7510217072E-01   -9.0669490234E-01
   -9.3728548499E-01   -9.6684825984E-01   -9.9535944935E-01   -1.0227971623E+00
   -1.0491413925E+00   -1.0743740114E+00   -1.0984787559E+00   -1.1214412092E+00
   -1.1432487785E+00   -1.1638906666E+00   -1.1833578398E+00   -1.2016429919E+00
   -1.2187405042E+00   -1.2346464030E+00   -1.2493583147E+00   -1.2628754166E+00
   -1.2751983889E+00   -1.2863293633E+00   -1.2962718711E+00   -1.3050307910E+00
   -1.3126122964E+00   -1.3190238034E+00   -1.3242739191E+00   -1.3283723910E+00
   -1.3313300593E+00   -1.3331588057E+00   -1.3338715094E+00   -1.3334820058E+00
   -1.3320050436E+00   -1.3294562410E+00   -1.3258520612E+00   -1.3212097651E+00
   -1.3155473927E+00   -1.3088837270E+00   -1.3012382753E+00   -1.2926312401E+00
   -1.2830835110E+00   -1.2726166305E+00   -1.2612528011E+00   -1.2490148537E+00
   -1.2359262468E+00   -1.2220110644E+00   -1.2072939941E+00   -1.1918003311E+00
   -1.1755559742E+00   -1.1585874247E+00   -1.1409217679E+00   -1.1225866846E+00
   -1.1036104417E+00   -1.0840218876E+00   -1.0638504476E+00   -1.0431261115E+00
   -1.0218794267E+00   -1.0001414882E+00   -9.7794392317E-01   -9.5531887382E-01
   -9.3229897746E-01   -9.0891734298E-01   -8.8520752385E-01   -8.6120348734E-01
   -8.3693957983E-01   -8.1245048799E-01   -7.8777119587E-01   -7.6293693780E-01
   -7.3798314697E-01   -7.1294539993E-01   -6.8785935690E-01   -6.6276069818E-01
   -6.3768505659E-01   -6.1266794650E-01   -5.8774468938E-01   -5.6295033645E-01