<UPF version="2.0.1">
  <PP_INFO>

 This pseudopotential file has been produced using the code
 ONCVPSP  (Optimized Norm-Conservinng Vanderbilt PSeudopotential)
 scalar-relativistic version 2.1.1, 03/26/2014 by D. R. Hamann
 The code is available through a link at URL www.mat-simresearch.com.
 Documentation with the package provides a full discription of the
 input data below.


 While it is not required under the terms of the GNU GPL, it is
 suggested that you cite D. R. Hamann, Phys. Rev. B 88, 085117 (2013)
 in any publication using these pseudopotentials.


 Copyright 2015 The Regents of the University of California
 
 This work is licensed under the Creative Commons Attribution-ShareAlike 
 4.0 International License. To view a copy of this license, visit 
 http://creativecommons.org/licenses/by-sa/4.0/ or send a letter to 
 Creative Commons, PO Box 1866, Mountain View, CA 94042, USA.
 
 This pseudopotential is part of the Schlipf-Gygi norm-conserving 
 pseudopotential library. Its construction parameters were tuned to 
 reproduce materials of a training set with very high accuracy and 
 should be suitable as a general purpose pseudopotential to treat a 
 variety of different compounds. For details of the construction and 
 testing of the pseudopotential please refer to:
 
 [insert reference to paper here]
 
 We kindly ask that you include this reference in all publications 
 associated to this pseudopotential.


    <PP_INPUTFILE>
# ATOM AND REFERENCE CONFIGURATION
# atsym  z    nc    nv    iexc   psfile
  Zr 40.00     6     4     4      upf
#
#   n    l    f        energy (Ha)
    1    0    2.00
    2    0    2.00
    2    1    6.00
    3    0    2.00
    3    1    6.00
    3    2   10.00
    4    0    2.00
    4    1    6.00
    5    0    2.00
    4    2    2.00
#
# PSEUDOPOTENTIAL AND OPTIMIZATION
# lmax
    2
#
#   l,   rc,     ep,   ncon, nbas, qcut
    0   2.49215  -2.00302    5    8   5.48929
    1   1.89419  -1.19294    5    8   7.16220
    2   2.18569  -0.13226    5    8   6.42328
#
# LOCAL POTENTIAL
# lloc, lpopt,  rc(5),   dvloc0
    4    5   1.51006      0.00000
#
# VANDERBILT-KLEINMAN-BYLANDER PROJECTORs
# l, nproj, debl
    0    2   1.83987
    1    2   1.98432
    2    2   1.46036
#
# MODEL CORE CHARGE
# icmod, fcfact
    0   0.00000
#
# LOG DERIVATIVE ANALYSIS
# epsh1, epsh2, depsh
   -5.00    3.00    0.02
#
# OUTPUT GRID
# rlmax, drl
    6.00    0.01
#
# TEST CONFIGURATIONS
# ncnf
    0
# nvcnf
#   n    l    f
    </PP_INPUTFILE>
  </PP_INFO>
  <!--                               -->
  <!-- END OF HUMAN READABLE SECTION -->
  <!--                               -->
    <PP_HEADER
       generated="Generated using ONCVPSP code by D. R. Hamann"
       author="Martin Schlipf and Francois Gygi"
       date="150105"
       comment=""
       element="Zr"
       pseudo_type="NC"
       relativistic="scalar"
       is_ultrasoft="F"
       is_paw="F"
       is_coulomb="F"
       has_so="F"
       has_wfc="F"
       has_gipaw="F"
       core_correction="F"
       functional="PBE"
       z_valence="   12.00"
       total_psenergy="  -4.71716898003E+01"
       rho_cutoff="   6.01000000000E+00"
       l_max="2"
       l_local="-1"
       mesh_size="   602"
       number_of_wfc="0"
       number_of_proj="6"/>
 <PP_MESH>
   <PP_R type="real"  size=" 602" columns="8">
    0.0000    0.0100    0.0200    0.0300    0.0400    0.0500    0.0600    0.0700
    0.0800    0.0900    0.1000    0.1100    0.1200    0.1300    0.1400    0.1500
    0.1600    0.1700    0.1800    0.1900    0.2000    0.2100    0.2200    0.2300
    0.2400    0.2500    0.2600    0.2700    0.2800    0.2900    0.3000    0.3100
    0.3200    0.3300    0.3400    0.3500    0.3600    0.3700    0.3800    0.3900
    0.4000    0.4100    0.4200    0.4300    0.4400    0.4500    0.4600    0.4700
    0.4800    0.4900    0.5000    0.5100    0.5200    0.5300    0.5400    0.5500
    0.5600    0.5700    0.5800    0.5900    0.6000    0.6100    0.6200    0.6300
    0.6400    0.6500    0.6600    0.6700    0.6800    0.6900    0.7000    0.7100
    0.7200    0.7300    0.7400    0.7500    0.7600    0.7700    0.7800    0.7900
    0.8000    0.8100    0.8200    0.8300    0.8400    0.8500    0.8600    0.8700
    0.8800    0.8900    0.9000    0.9100    0.9200    0.9300    0.9400    0.9500
    0.9600    0.9700    0.9800    0.9900    1.0000    1.0100    1.0200    1.0300
    1.0400    1.0500    1.0600    1.0700    1.0800    1.0900    1.1000    1.1100
    1.1200    1.1300    1.1400    1.1500    1.1600    1.1700    1.1800    1.1900
    1.2000    1.2100    1.2200    1.2300    1.2400    1.2500    1.2600    1.2700
    1.2800    1.2900    1.3000    1.3100    1.3200    1.3300    1.3400    1.3500
    1.3600    1.3700    1.3800    1.3900    1.4000    1.4100    1.4200    1.4300
    1.4400    1.4500    1.4600    1.4700    1.4800    1.4900    1.5000    1.5100
    1.5200    1.5300    1.5400    1.5500    1.5600    1.5700    1.5800    1.5900
    1.6000    1.6100    1.6200    1.6300    1.6400    1.6500    1.6600    1.6700
    1.6800    1.6900    1.7000    1.7100    1.7200    1.7300    1.7400    1.7500
    1.7600    1.7700    1.7800    1.7900    1.8000    1.8100    1.8200    1.8300
    1.8400    1.8500    1.8600    1.8700    1.8800    1.8900    1.9000    1.9100
    1.9200    1.9300    1.9400    1.9500    1.9600    1.9700    1.9800    1.9900
    2.0000    2.0100    2.0200    2.0300    2.0400    2.0500    2.0600    2.0700
    2.0800    2.0900    2.1000    2.1100    2.1200    2.1300    2.1400    2.1500
    2.1600    2.1700    2.1800    2.1900    2.2000    2.2100    2.2200    2.2300
    2.2400    2.2500    2.2600    2.2700    2.2800    2.2900    2.3000    2.3100
    2.3200    2.3300    2.3400    2.3500    2.3600    2.3700    2.3800    2.3900
    2.4000    2.4100    2.4200    2.4300    2.4400    2.4500    2.4600    2.4700
    2.4800    2.4900    2.5000    2.5100    2.5200    2.5300    2.5400    2.5500
    2.5600    2.5700    2.5800    2.5900    2.6000    2.6100    2.6200    2.6300
    2.6400    2.6500    2.6600    2.6700    2.6800    2.6900    2.7000    2.7100
    2.7200    2.7300    2.7400    2.7500    2.7600    2.7700    2.7800    2.7900
    2.8000    2.8100    2.8200    2.8300    2.8400    2.8500    2.8600    2.8700
    2.8800    2.8900    2.9000    2.9100    2.9200    2.9300    2.9400    2.9500
    2.9600    2.9700    2.9800    2.9900    3.0000    3.0100    3.0200    3.0300
    3.0400    3.0500    3.0600    3.0700    3.0800    3.0900    3.1000    3.1100
    3.1200    3.1300    3.1400    3.1500    3.1600    3.1700    3.1800    3.1900
    3.2000    3.2100    3.2200    3.2300    3.2400    3.2500    3.2600    3.2700
    3.2800    3.2900    3.3000    3.3100    3.3200    3.3300    3.3400    3.3500
    3.3600    3.3700    3.3800    3.3900    3.4000    3.4100    3.4200    3.4300
    3.4400    3.4500    3.4600    3.4700    3.4800    3.4900    3.5000    3.5100
    3.5200    3.5300    3.5400    3.5500    3.5600    3.5700    3.5800    3.5900
    3.6000    3.6100    3.6200    3.6300    3.6400    3.6500    3.6600    3.6700
    3.6800    3.6900    3.7000    3.7100    3.7200    3.7300    3.7400    3.7500
    3.7600    3.7700    3.7800    3.7900    3.8000    3.8100    3.8200    3.8300
    3.8400    3.8500    3.8600    3.8700    3.8800    3.8900    3.9000    3.9100
    3.9200    3.9300    3.9400    3.9500    3.9600    3.9700    3.9800    3.9900
    4.0000    4.0100    4.0200    4.0300    4.0400    4.0500    4.0600    4.0700
    4.0800    4.0900    4.1000    4.1100    4.1200    4.1300    4.1400    4.1500
    4.1600    4.1700    4.1800    4.1900    4.2000    4.2100    4.2200    4.2300
    4.2400    4.2500    4.2600    4.2700    4.2800    4.2900    4.3000    4.3100
    4.3200    4.3300    4.3400    4.3500    4.3600    4.3700    4.3800    4.3900
    4.4000    4.4100    4.4200    4.4300    4.4400    4.4500    4.4600    4.4700
    4.4800    4.4900    4.5000    4.5100    4.5200    4.5300    4.5400    4.5500
    4.5600    4.5700    4.5800    4.5900    4.6000    4.6100    4.6200    4.6300
    4.6400    4.6500    4.6600    4.6700    4.6800    4.6900    4.7000    4.7100
    4.7200    4.7300    4.7400    4.7500    4.7600    4.7700    4.7800    4.7900
    4.8000    4.8100    4.8200    4.8300    4.8400    4.8500    4.8600    4.8700
    4.8800    4.8900    4.9000    4.9100    4.9200    4.9300    4.9400    4.9500
    4.9600    4.9700    4.9800    4.9900    5.0000    5.0100    5.0200    5.0300
    5.0400    5.0500    5.0600    5.0700    5.0800    5.0900    5.1000    5.1100
    5.1200    5.1300    5.1400    5.1500    5.1600    5.1700    5.1800    5.1900
    5.2000    5.2100    5.2200    5.2300    5.2400    5.2500    5.2600    5.2700
    5.2800    5.2900    5.3000    5.3100    5.3200    5.3300    5.3400    5.3500
    5.3600    5.3700    5.3800    5.3900    5.4000    5.4100    5.4200    5.4300
    5.4400    5.4500    5.4600    5.4700    5.4800    5.4900    5.5000    5.5100
    5.5200    5.5300    5.5400    5.5500    5.5600    5.5700    5.5800    5.5900
    5.6000    5.6100    5.6200    5.6300    5.6400    5.6500    5.6600    5.6700
    5.6800    5.6900    5.7000    5.7100    5.7200    5.7300    5.7400    5.7500
    5.7600    5.7700    5.7800    5.7900    5.8000    5.8100    5.8200    5.8300
    5.8400    5.8500    5.8600    5.8700    5.8800    5.8900    5.9000    5.9100
    5.9200    5.9300    5.9400    5.9500    5.9600    5.9700    5.9800    5.9900
    6.0000    6.0100
   </PP_R>
   <PP_RAB type="real"  size=" 602" columns="8">
    0.0100    0.0100    0.0100    0.0100    0.0100    0.0100    0.0100    0.0100
    0.0100    0.0100    0.0100    0.0100    0.0100    0.0100    0.0100    0.0100
    0.0100    0.0100    0.0100    0.0100    0.0100    0.0100    0.0100    0.0100
    0.0100    0.0100    0.0100    0.0100    0.0100    0.0100    0.0100    0.0100
    0.0100    0.0100    0.0100    0.0100    0.0100    0.0100    0.0100    0.0100
    0.0100    0.0100    0.0100    0.0100    0.0100    0.0100    0.0100    0.0100
    0.0100    0.0100    0.0100    0.0100    0.0100    0.0100    0.0100    0.0100
    0.0100    0.0100    0.0100    0.0100    0.0100    0.0100    0.0100    0.0100
    0.0100    0.0100    0.0100    0.0100    0.0100    0.0100    0.0100    0.0100
    0.0100    0.0100    0.0100    0.0100    0.0100    0.0100    0.0100    0.0100
    0.0100    0.0100    0.0100    0.0100    0.0100    0.0100    0.0100    0.0100
    0.0100    0.0100    0.0100    0.0100    0.0100    0.0100    0.0100    0.0100
    0.0100    0.0100    0.0100    0.0100    0.0100    0.0100    0.0100    0.0100
    0.0100    0.0100    0.0100    0.0100    0.0100    0.0100    0.0100    0.0100
    0.0100    0.0100    0.0100    0.0100    0.0100    0.0100    0.0100    0.0100
    0.0100    0.0100    0.0100    0.0100    0.0100    0.0100    0.0100    0.0100
    0.0100    0.0100    0.0100    0.0100    0.0100    0.0100    0.0100    0.0100
    0.0100    0.0100    0.0100    0.0100    0.0100    0.0100    0.0100    0.0100
    0.0100    0.0100    0.0100    0.0100    0.0100    0.0100    0.0100    0.0100
    0.0100    0.0100    0.0100    0.0100    0.0100    0.0100    0.0100    0.0100
    0.0100    0.0100    0.0100    0.0100    0.0100    0.0100    0.0100    0.0100
    0.0100    0.0100    0.0100    0.0100    0.0100    0.0100    0.0100    0.0100
    0.0100    0.0100    0.0100    0.0100    0.0100    0.0100    0.0100    0.0100
    0.0100    0.0100    0.0100    0.0100    0.0100    0.0100    0.0100    0.0100
    0.0100    0.0100    0.0100    0.0100    0.0100    0.0100    0.0100    0.0100
    0.0100    0.0100    0.0100    0.0100    0.0100    0.0100    0.0100    0.0100
    0.0100    0.0100    0.0100    0.0100    0.0100    0.0100    0.0100    0.0100
    0.0100    0.0100    0.0100    0.0100    0.0100    0.0100    0.0100    0.0100
    0.0100    0.0100    0.0100    0.0100    0.0100    0.0100    0.0100    0.0100
    0.0100    0.0100    0.0100    0.0100    0.0100    0.0100    0.0100    0.0100
    0.0100    0.0100    0.0100    0.0100    0.0100    0.0100    0.0100    0.0100
    0.0100    0.0100    0.0100    0.0100    0.0100    0.0100    0.0100    0.0100
    0.0100    0.0100    0.0100    0.0100    0.0100    0.0100    0.0100    0.0100
    0.0100    0.0100    0.0100    0.0100    0.0100    0.0100    0.0100    0.0100
    0.0100    0.0100    0.0100    0.0100    0.0100    0.0100    0.0100    0.0100
    0.0100    0.0100    0.0100    0.0100    0.0100    0.0100    0.0100    0.0100
    0.0100    0.0100    0.0100    0.0100    0.0100    0.0100    0.0100    0.0100
    0.0100    0.0100    0.0100    0.0100    0.0100    0.0100    0.0100    0.0100
    0.0100    0.0100    0.0100    0.0100    0.0100    0.0100    0.0100    0.0100
    0.0100    0.0100    0.0100    0.0100    0.0100    0.0100    0.0100    0.0100
    0.0100    0.0100    0.0100    0.0100    0.0100    0.0100    0.0100    0.0100
    0.0100    0.0100    0.0100    0.0100    0.0100    0.0100    0.0100    0.0100
    0.0100    0.0100    0.0100    0.0100    0.0100    0.0100    0.0100    0.0100
    0.0100    0.0100    0.0100    0.0100    0.0100    0.0100    0.0100    0.0100
    0.0100    0.0100    0.0100    0.0100    0.0100    0.0100    0.0100    0.0100
    0.0100    0.0100    0.0100    0.0100    0.0100    0.0100    0.0100    0.0100
    0.0100    0.0100    0.0100    0.0100    0.0100    0.0100    0.0100    0.0100
    0.0100    0.0100    0.0100    0.0100    0.0100    0.0100    0.0100    0.0100
    0.0100    0.0100    0.0100    0.0100    0.0100    0.0100    0.0100    0.0100
    0.0100    0.0100    0.0100    0.0100    0.0100    0.0100    0.0100    0.0100
    0.0100    0.0100    0.0100    0.0100    0.0100    0.0100    0.0100    0.0100
    0.0100    0.0100    0.0100    0.0100    0.0100    0.0100    0.0100    0.0100
    0.0100    0.0100    0.0100    0.0100    0.0100    0.0100    0.0100    0.0100
    0.0100    0.0100    0.0100    0.0100    0.0100    0.0100    0.0100    0.0100
    0.0100    0.0100    0.0100    0.0100    0.0100    0.0100    0.0100    0.0100
    0.0100    0.0100    0.0100    0.0100    0.0100    0.0100    0.0100    0.0100
    0.0100    0.0100    0.0100    0.0100    0.0100    0.0100    0.0100    0.0100
    0.0100    0.0100    0.0100    0.0100    0.0100    0.0100    0.0100    0.0100
    0.0100    0.0100    0.0100    0.0100    0.0100    0.0100    0.0100    0.0100
    0.0100    0.0100    0.0100    0.0100    0.0100    0.0100    0.0100    0.0100
    0.0100    0.0100    0.0100    0.0100    0.0100    0.0100    0.0100    0.0100
    0.0100    0.0100    0.0100    0.0100    0.0100    0.0100    0.0100    0.0100
    0.0100    0.0100    0.0100    0.0100    0.0100    0.0100    0.0100    0.0100
    0.0100    0.0100    0.0100    0.0100    0.0100    0.0100    0.0100    0.0100
    0.0100    0.0100    0.0100    0.0100    0.0100    0.0100    0.0100    0.0100
    0.0100    0.0100    0.0100    0.0100    0.0100    0.0100    0.0100    0.0100
    0.0100    0.0100    0.0100    0.0100    0.0100    0.0100    0.0100    0.0100
    0.0100    0.0100    0.0100    0.0100    0.0100    0.0100    0.0100    0.0100
    0.0100    0.0100    0.0100    0.0100    0.0100    0.0100    0.0100    0.0100
    0.0100    0.0100    0.0100    0.0100    0.0100    0.0100    0.0100    0.0100
    0.0100    0.0100    0.0100    0.0100    0.0100    0.0100    0.0100    0.0100
    0.0100    0.0100    0.0100    0.0100    0.0100    0.0100    0.0100    0.0100
    0.0100    0.0100    0.0100    0.0100    0.0100    0.0100    0.0100    0.0100
    0.0100    0.0100    0.0100    0.0100    0.0100    0.0100    0.0100    0.0100
    0.0100    0.0100    0.0100    0.0100    0.0100    0.0100    0.0100    0.0100
    0.0100    0.0100
   </PP_RAB>
 </PP_MESH>
  <PP_LOCAL type="real"  size=" 602" columns="4">
   -3.5208990634E+01   -3.5207696006E+01   -3.5203838376E+01   -3.5197389824E+01
   -3.5188322431E+01   -3.5176598712E+01   -3.5162173111E+01   -3.5144993756E+01
   -3.5125004394E+01   -3.5102146394E+01   -3.5076360728E+01   -3.5047589845E+01
   -3.5015779367E+01   -3.4980879545E+01   -3.4942846462E+01   -3.4901642952E+01
   -3.4857239232E+01   -3.4809613284E+01   -3.4758750988E+01   -3.4704646054E+01
   -3.4647299773E+01   -3.4586720642E+01   -3.4522923883E+01   -3.4455930894E+01
   -3.4385768664E+01   -3.4312469169E+01   -3.4236068774E+01   -3.4156607661E+01
   -3.4074129275E+01   -3.3988679824E+01   -3.3900307812E+01   -3.3809063621E+01
   -3.3714999138E+01   -3.3618167425E+01   -3.3518622430E+01   -3.3416418732E+01
   -3.3311611325E+01   -3.3204255429E+01   -3.3094406321E+01   -3.2982119198E+01
   -3.2867449049E+01   -3.2750450550E+01   -3.2631177962E+01   -3.2509685054E+01
   -3.2386025018E+01   -3.2260250405E+01   -3.2132413059E+01   -3.2002564059E+01
   -3.1870753672E+01   -3.1737031299E+01   -3.1601445431E+01   -3.1464043613E+01
   -3.1324872426E+01   -3.1183977427E+01   -3.1041403163E+01   -3.0897193139E+01
   -3.0751389813E+01   -3.0604034612E+01   -3.0455167920E+01   -3.0304829123E+01
   -3.0153056625E+01   -2.9999887885E+01   -2.9845359503E+01   -2.9689507225E+01
   -2.9532366068E+01   -2.9373970394E+01   -2.9214353981E+01   -2.9053550163E+01
   -2.8891591929E+01   -2.8728512052E+01   -2.8564343219E+01   -2.8399118180E+01
   -2.8232869884E+01   -2.8065631626E+01   -2.7897437203E+01   -2.7728321068E+01
   -2.7558318467E+01   -2.7387465583E+01   -2.7215799676E+01   -2.7043359202E+01
   -2.6870183936E+01   -2.6696315071E+01   -2.6521795304E+01   -2.6346668913E+01
   -2.6170981805E+01   -2.5994781557E+01   -2.5818117426E+01   -2.5641040348E+01
   -2.5463602914E+01   -2.5285859323E+01   -2.5107865323E+01   -2.4929678123E+01
   -2.4751356299E+01   -2.4572959676E+01   -2.4394549198E+01   -2.4216186785E+01
   -2.4037935180E+01   -2.3859857780E+01   -2.3682018505E+01   -2.3504481581E+01
   -2.3327311372E+01   -2.3150572207E+01   -2.2974328203E+01   -2.2798643118E+01
   -2.2623580172E+01   -2.2449201808E+01   -2.2275569613E+01   -2.2102744154E+01
   -2.1930784904E+01   -2.1759750019E+01   -2.1589696097E+01   -2.1420678274E+01
   -2.1252750106E+01   -2.1085963550E+01   -2.0920368349E+01   -2.0756012524E+01
   -2.0592942303E+01   -2.0431201849E+01   -2.0270832876E+01   -2.0111875202E+01
   -1.9954366943E+01   -1.9798343194E+01   -1.9643837095E+01   -1.9490880008E+01
   -1.9339500519E+01   -1.9189724776E+01   -1.9041577287E+01   -1.8895079861E+01
   -1.8750251627E+01   -1.8607110282E+01   -1.8465670609E+01   -1.8325944811E+01
   -1.8187943905E+01   -1.8051675417E+01   -1.7917144844E+01   -1.7784356584E+01
   -1.7653310805E+01   -1.7524006868E+01   -1.7396441667E+01   -1.7270608894E+01
   -1.7146501841E+01   -1.7024109574E+01   -1.6903420164E+01   -1.6784419548E+01
   -1.6667090175E+01   -1.6551414661E+01   -1.6437370611E+01   -1.6324935701E+01
   -1.6214084260E+01   -1.6104788449E+01   -1.5997019259E+01   -1.5890743583E+01
   -1.5785928270E+01   -1.5682538746E+01   -1.5580540809E+01   -1.5479902451E+01
   -1.5380591836E+01   -1.5282578847E+01   -1.5185834211E+01   -1.5090329593E+01
   -1.4996038152E+01   -1.4902933316E+01   -1.4810990510E+01   -1.4720184899E+01
   -1.4630493971E+01   -1.4541894586E+01   -1.4454366078E+01   -1.4367886937E+01
   -1.4282438115E+01   -1.4197999645E+01   -1.4114553869E+01   -1.4032082257E+01
   -1.3950568318E+01   -1.3869994846E+01   -1.3790346296E+01   -1.3711606639E+01
   -1.3633761094E+01   -1.3556794665E+01   -1.3480693170E+01   -1.3405442479E+01
   -1.3331028876E+01   -1.3257438934E+01   -1.3184659304E+01   -1.3112677095E+01
   -1.3041479252E+01   -1.2971053265E+01   -1.2901386326E+01   -1.2832466136E+01
   -1.2764280056E+01   -1.2696816054E+01   -1.2630061636E+01   -1.2564005306E+01
   -1.2498635952E+01   -1.2433942366E+01   -1.2369914501E+01   -1.2306541583E+01
   -1.2243813904E+01   -1.2181721120E+01   -1.2120253747E+01   -1.2059402346E+01
   -1.1999157476E+01   -1.1939510426E+01   -1.1880451870E+01   -1.1821973551E+01
   -1.1764066752E+01   -1.1706723163E+01   -1.1649934807E+01   -1.1593693316E+01
   -1.1537991242E+01   -1.1482820629E+01   -1.1428174014E+01   -1.1374044097E+01
   -1.1320423293E+01   -1.1267304785E+01   -1.1214681322E+01   -1.1162546043E+01
   -1.1110892287E+01   -1.1059713004E+01   -1.1009001992E+01   -1.0958752601E+01
   -1.0908958451E+01   -1.0859613635E+01   -1.0810711727E+01   -1.0762247106E+01
   -1.0714214031E+01   -1.0666606575E+01   -1.0619419469E+01   -1.0572647072E+01
   -1.0526283968E+01   -1.0480325040E+01   -1.0434764806E+01   -1.0389598321E+01
   -1.0344820645E+01   -1.0300426511E+01   -1.0256411373E+01   -1.0212770378E+01
   -1.0169498635E+01   -1.0126591769E+01   -1.0084045096E+01   -1.0041854069E+01
   -1.0000014470E+01   -9.9585217848E+00   -9.9173717687E+00   -9.8765603634E+00
   -9.8360832225E+00   -9.7959363731E+00   -9.7561159211E+00   -9.7166176962E+00
   -9.6774379662E+00   -9.6385730013E+00   -9.6000188385E+00   -9.5617719131E+00
   -9.5238286263E+00   -9.4861851489E+00   -9.4488380944E+00   -9.4117840300E+00
   -9.3750192692E+00   -9.3385406051E+00   -9.3023448019E+00   -9.2664284129E+00
   -9.2307883151E+00   -9.1954214086E+00   -9.1603243851E+00   -9.1254942212E+00
   -9.0909280027E+00   -9.0566226138E+00   -9.0225750950E+00   -8.9887826934E+00
   -8.9552424713E+00   -8.9219515092E+00   -8.8889072222E+00   -8.8561068549E+00
   -8.8235475104E+00   -8.7912267656E+00   -8.7591420105E+00   -8.7272904666E+00
   -8.6956697559E+00   -8.6642774269E+00   -8.6331108796E+00   -8.6021677037E+00
   -8.5714456220E+00   -8.5409422186E+00   -8.5106550335E+00   -8.4805819582E+00
   -8.4507207311E+00   -8.4210689304E+00   -8.3916245100E+00   -8.3623853451E+00
   -8.3333491956E+00   -8.3045139224E+00   -8.2758775782E+00   -8.2474381070E+00
   -8.2191932787E+00   -8.1911413007E+00   -8.1632802164E+00   -8.1356079755E+00
   -8.1081226576E+00   -8.0808224877E+00   -8.0537055970E+00   -8.0267699536E+00
   -8.0000139252E+00   -7.9734357385E+00   -7.9470335445E+00   -7.9208055510E+00
   -7.8947501670E+00   -7.8688656937E+00   -7.8431503051E+00   -7.8176024466E+00
   -7.7922205405E+00   -7.7670029509E+00   -7.7419479359E+00   -7.7170540961E+00
   -7.6923198872E+00   -7.6677437007E+00   -7.6433239849E+00   -7.6190593663E+00
   -7.5949483726E+00   -7.5709894307E+00   -7.5471811536E+00   -7.5235221960E+00
   -7.5000111544E+00   -7.4766464974E+00   -7.4534269779E+00   -7.4303512827E+00
   -7.4074180737E+00   -7.3846258672E+00   -7.3619735316E+00   -7.3394597911E+00
   -7.3170833527E+00   -7.2948428360E+00   -7.2727371517E+00   -7.2507650834E+00
   -7.2289253884E+00   -7.2072167694E+00   -7.1856381828E+00   -7.1641884688E+00
   -7.1428664395E+00   -7.1216708616E+00   -7.1006007406E+00   -7.0796549708E+00
   -7.0588324231E+00   -7.0381319104E+00   -7.0175524908E+00   -6.9970931101E+00
   -6.9767527021E+00   -6.9565301088E+00   -6.9364244443E+00   -6.9164347036E+00
   -6.8965598815E+00   -6.8767988502E+00   -6.8571507662E+00   -6.8376146764E+00
   -6.8181896227E+00   -6.7988745471E+00   -6.7796685969E+00   -6.7605708867E+00
   -6.7415805030E+00   -6.7226964618E+00   -6.7039178866E+00   -6.6852439625E+00
   -6.6666738185E+00   -6.6482065485E+00   -6.6298412397E+00   -6.6115771489E+00
   -6.5934134458E+00   -6.5753492998E+00   -6.5573837694E+00   -6.5395161655E+00
   -6.5217457020E+00   -6.5040715874E+00   -6.4864929626E+00   -6.4690090728E+00
   -6.4516192137E+00   -6.4343226304E+00   -6.4171185520E+00   -6.4000061474E+00
   -6.3829847933E+00   -6.3660537700E+00   -6.3492123579E+00   -6.3324597645E+00
   -6.3157953245E+00   -6.2992183913E+00   -6.2827282787E+00   -6.2663242880E+00
   -6.2500056537E+00   -6.2337718164E+00   -6.2176221218E+00   -6.2015559157E+00
   -6.1855724885E+00   -6.1696712047E+00   -6.1538514925E+00   -6.1381127281E+00
   -6.1224542878E+00   -6.1068754590E+00   -6.0913757174E+00   -6.0759544824E+00
   -6.0606111593E+00   -6.0453451368E+00   -6.0301557570E+00   -6.0150425368E+00
   -6.0000049092E+00   -5.9850423073E+00   -5.9701541241E+00   -5.9553397829E+00
   -5.9405988030E+00   -5.9259306438E+00   -5.9113347648E+00   -5.8968105689E+00
   -5.8823575451E+00   -5.8679752191E+00   -5.8536630757E+00   -5.8394205993E+00
   -5.8252472083E+00   -5.8111424416E+00   -5.7971058363E+00   -5.7831369012E+00
   -5.7692351448E+00   -5.7554000054E+00   -5.7416310572E+00   -5.7279278539E+00
   -5.7142899268E+00   -5.7007168076E+00   -5.6872079583E+00   -5.6737629756E+00
   -5.6603814337E+00   -5.6470628859E+00   -5.6338068855E+00   -5.6206129229E+00
   -5.6074806038E+00   -5.5944095276E+00   -5.5813992686E+00   -5.5684494009E+00
   -5.5555594466E+00   -5.5427290089E+00   -5.5299577166E+00   -5.5172451635E+00
   -5.5045909437E+00   -5.4919946151E+00   -5.4794557671E+00   -5.4669740610E+00
   -5.4545491099E+00   -5.4421805266E+00   -5.4298679086E+00   -5.4176108211E+00
   -5.4054089613E+00   -5.3932619602E+00   -5.3811694487E+00   -5.3691310579E+00
   -5.3571463484E+00   -5.3452150270E+00   -5.3333367512E+00   -5.3215111692E+00
   -5.3097379291E+00   -5.2980166382E+00   -5.2863469558E+00   -5.2747285844E+00
   -5.2631611887E+00   -5.2516444331E+00   -5.2401779753E+00   -5.2287614191E+00
   -5.2173945136E+00   -5.2060769387E+00   -5.1948083748E+00   -5.1835885021E+00
   -5.1724169560E+00   -5.1612934394E+00   -5.1502176780E+00   -5.1391893668E+00
   -5.1282082009E+00   -5.1172738730E+00   -5.1063860115E+00   -5.0955443950E+00
   -5.0847487328E+00   -5.0739987343E+00   -5.0632941086E+00   -5.0526345359E+00
   -5.0420197175E+00   -5.0314494187E+00   -5.0209233623E+00   -5.0104412712E+00
   -5.0000028682E+00   -4.9896078267E+00   -4.9792559075E+00   -4.9689468667E+00
   -4.9586804402E+00   -4.9484563637E+00   -4.9382743730E+00   -4.9281341400E+00
   -4.9180354721E+00   -4.9079781209E+00   -4.8979618345E+00   -4.8879863610E+00
   -4.8780514408E+00   -4.8681567725E+00   -4.8583021742E+00   -4.8484874056E+00
   -4.8387122266E+00   -4.8289763969E+00   -4.8192796625E+00   -4.8096217483E+00
   -4.8000024763E+00   -4.7904216174E+00   -4.7808789427E+00   -4.7713742231E+00
   -4.7619072142E+00   -4.7524776568E+00   -4.7430853806E+00   -4.7337301671E+00
   -4.7244117981E+00   -4.7151300552E+00   -4.7058847079E+00   -4.6966755024E+00
   -4.6875022798E+00   -4.6783648322E+00   -4.6692629514E+00   -4.6601964291E+00
   -4.6511650527E+00   -4.6421685638E+00   -4.6332068193E+00   -4.6242796208E+00
   -4.6153867696E+00   -4.6065280675E+00   -4.5977033158E+00   -4.5889122644E+00
   -4.5801547676E+00   -4.5714306433E+00   -4.5627397021E+00   -4.5540817549E+00
   -4.5454566124E+00   -4.5368640496E+00   -4.5283038964E+00   -4.5197759943E+00
   -4.5112801630E+00   -4.5028162222E+00   -4.4943839914E+00   -4.4859832743E+00
   -4.4776138681E+00   -4.4692756413E+00   -4.4609684219E+00   -4.4526920380E+00
   -4.4444463174E+00   -4.4362310884E+00   -4.4280461316E+00   -4.4198913213E+00
   -4.4117665013E+00   -4.4036715075E+00   -4.3956061759E+00   -4.3875703427E+00
   -4.3795638238E+00   -4.3715864440E+00   -4.3636380808E+00   -4.3557185779E+00
   -4.3478277790E+00   -4.3399655278E+00   -4.3321316679E+00   -4.3243260012E+00
   -4.3165484081E+00   -4.3087987501E+00   -4.3010768784E+00   -4.2933826438E+00
   -4.2857158972E+00   -4.2780764821E+00   -4.2704642145E+00   -4.2628789955E+00
   -4.2553206831E+00   -4.2477891353E+00   -4.2402842098E+00   -4.2328057647E+00
   -4.2253536368E+00   -4.2179276783E+00   -4.2105277829E+00   -4.2031538153E+00
   -4.1958056400E+00   -4.1884831213E+00   -4.1811861240E+00   -4.1739144827E+00
   -4.1666680760E+00   -4.1594467941E+00   -4.1522505078E+00   -4.1450790879E+00
   -4.1379324053E+00   -4.1308103309E+00   -4.1237127013E+00   -4.1166394118E+00
   -4.1095903530E+00   -4.1025654018E+00   -4.0955644351E+00   -4.0885873296E+00
   -4.0816339623E+00   -4.0747041756E+00   -4.0677978724E+00   -4.0609149478E+00
   -4.0540552842E+00   -4.0472187643E+00   -4.0404052707E+00   -4.0336146859E+00
   -4.0268468616E+00   -4.0201017001E+00   -4.0133791042E+00   -4.0066789620E+00
   -4.0000011616E+00   -3.9933455909E+00
  </PP_LOCAL>
 <PP_NONLOCAL>
   <PP_BETA.1
       type="real"
       size=" 602"
       columns="4"
       index="1"
       angular_momentum="0"
       cutoff_radius_index=" 254"
       cutoff_radius="    2.5300000000E+00" >
    0.0000000000E+00   -4.2912454394E-02   -8.5785233491E-02   -1.2857867789E-01
   -1.7125316010E-01   -2.1376910086E-01   -2.5608698582E-01   -2.9816738281E-01
   -3.3997095970E-01   -3.8145850311E-01   -4.2259093801E-01   -4.6332934834E-01
   -5.0363499874E-01   -5.4346935755E-01   -5.8279412110E-01   -6.2157123945E-01
   -6.5976294359E-01   -6.9733177425E-01   -7.3424061222E-01   -7.7045271053E-01
   -8.0593172812E-01   -8.4064176543E-01   -8.7454740162E-01   -9.0761373363E-01
   -9.3980641692E-01   -9.7109170797E-01   -1.0014365085E+00   -1.0308084114E+00
   -1.0591757478E+00   -1.0865076365E+00   -1.1127740341E+00   -1.1379457868E+00
   -1.1619946829E+00   -1.1848935074E+00   -1.2066160972E+00   -1.2271373952E+00
   -1.2464335096E+00   -1.2644817679E+00   -1.2812607756E+00   -1.2967504738E+00
   -1.3109321953E+00   -1.3237887222E+00   -1.3353043416E+00   -1.3454649018E+00
   -1.3542578662E+00   -1.3616723673E+00   -1.3676992575E+00   -1.3723311600E+00
   -1.3755625152E+00   -1.3773896273E+00   -1.3778107103E+00   -1.3768259243E+00
   -1.3744374093E+00   -1.3706493332E+00   -1.3654679062E+00   -1.3589014162E+00
   -1.3509602517E+00   -1.3416569140E+00   -1.3310060402E+00   -1.3190244035E+00
   -1.3057309229E+00   -1.2911466642E+00   -1.2752948221E+00   -1.2582007292E+00
   -1.2398918208E+00   -1.2203976176E+00   -1.1997497048E+00   -1.1779816887E+00
   -1.1551291598E+00   -1.1312296489E+00   -1.1063225725E+00   -1.0804491756E+00
   -1.0536524685E+00   -1.0259771593E+00   -9.9746957600E-01   -9.6817758151E-01
   -9.3815049331E-01   -9.0743898932E-01   -8.7609501060E-01   -8.4417165906E-01
   -8.1172309027E-01   -7.7880440179E-01   -7.4547151720E-01   -7.1178106614E-01
   -6.7779026069E-01   -6.4355676840E-01   -6.0913858235E-01   -5.7459388861E-01
   -5.3998093143E-01   -5.0535787672E-01   -4.7078267402E-01   -4.3631291768E-01