<UPF version="2.0.1"><PP_INFO>This pseudopotential file has been produced using the code
ONCVPSP (Optimized Norm-Conservinng Vanderbilt PSeudopotential)
scalar-relativistic version 3.3.0 08/16/2017 by D. R. Hamann
The code is available through a link at URL www.mat-simresearch.com.
Documentation with the package provides a full discription of the
input data below.
While it is not required under the terms of the GNU GPL, it is
suggested that you cite D. R. Hamann, Phys. Rev. B 88, 085117 (2013)
in any publication using these pseudopotentials.<PP_INPUTFILE>
# ATOM AND REFERENCE CONFIGURATION
# atsym z nc nv iexc psfile
Ne 10.00 1 2 -1012 upf
#
# n l f energy (Ha)
1 0 2.00
2 0 2.00
2 1 6.00
#
# PSEUDOPOTENTIAL AND OPTIMIZATION
# lmax
1
#
# l, rc, ep, ncon, nbas, qcut
0 1.30000 -1.32722 4 7 9.00000
1 1.50000 -0.49737 4 7 8.80000
#
# LOCAL POTENTIAL
# lloc, lpopt, rc(5), dvloc0
4 5 1.30000 0.00000
#
# VANDERBILT-KLEINMAN-BYLANDER PROJECTORs
# l, nproj, debl
0 2 1.50000
1 2 1.50000
#
# MODEL CORE CHARGE
# icmod, fcfact, rcfact
0 0.00000 0.00000
#
# LOG DERIVATIVE ANALYSIS
# epsh1, epsh2, depsh
-12.00 12.00 0.02
#
# OUTPUT GRID
# rlmax, drl
4.00 0.01
#
# TEST CONFIGURATIONS
# ncnf
0
# nvcnf
# n l f</PP_INPUTFILE></PP_INFO><PP_HEADER generated="Generated using ONCVPSP code by D. R. Hamann" author="anonymous" date="180309" comment="" element="Ne" pseudo_type="NC" relativistic="scalar" is_ultrasoft="F" is_paw="F" is_coulomb="F" has_so="F" has_wfc="F" has_gipaw="F" core_correction="F" functional="SLA  PW   NOGX NOGC" z_valence="    8.00" total_psenergy="  -6.76703555307E+01" rho_cutoff="   7.49000000000E+00" l_max="1" l_local="-1" mesh_size="   750" number_of_wfc="2" number_of_proj="4"/><PP_MESH><PP_R type="real" size=" 750" columns="8">
0.0000 0.0100 0.0200 0.0300 0.0400 0.0500 0.0600 0.0700
0.0800 0.0900 0.1000 0.1100 0.1200 0.1300 0.1400 0.1500
0.1600 0.1700 0.1800 0.1900 0.2000 0.2100 0.2200 0.2300
0.2400 0.2500 0.2600 0.2700 0.2800 0.2900 0.3000 0.3100
0.3200 0.3300 0.3400 0.3500 0.3600 0.3700 0.3800 0.3900
0.4000 0.4100 0.4200 0.4300 0.4400 0.4500 0.4600 0.4700
0.4800 0.4900 0.5000 0.5100 0.5200 0.5300 0.5400 0.5500
0.5600 0.5700 0.5800 0.5900 0.6000 0.6100 0.6200 0.6300
0.6400 0.6500 0.6600 0.6700 0.6800 0.6900 0.7000 0.7100
0.7200 0.7300 0.7400 0.7500 0.7600 0.7700 0.7800 0.7900
0.8000 0.8100 0.8200 0.8300 0.8400 0.8500 0.8600 0.8700
0.8800 0.8900 0.9000 0.9100 0.9200 0.9300 0.9400 0.9500
0.9600 0.9700 0.9800 0.9900 1.0000 1.0100 1.0200 1.0300
1.0400 1.0500 1.0600 1.0700 1.0800 1.0900 1.1000 1.1100
1.1200 1.1300 1.1400 1.1500 1.1600 1.1700 1.1800 1.1900
1.2000 1.2100 1.2200 1.2300 1.2400 1.2500 1.2600 1.2700
1.2800 1.2900 1.3000 1.3100 1.3200 1.3300 1.3400 1.3500
1.3600 1.3700 1.3800 1.3900 1.4000 1.4100 1.4200 1.4300
1.4400 1.4500 1.4600 1.4700 1.4800 1.4900 1.5000 1.5100
1.5200 1.5300 1.5400 1.5500 1.5600 1.5700 1.5800 1.5900
1.6000 1.6100 1.6200 1.6300 1.6400 1.6500 1.6600 1.6700
1.6800 1.6900 1.7000 1.7100 1.7200 1.7300 1.7400 1.7500
1.7600 1.7700 1.7800 1.7900 1.8000 1.8100 1.8200 1.8300
1.8400 1.8500 1.8600 1.8700 1.8800 1.8900 1.9000 1.9100
1.9200 1.9300 1.9400 1.9500 1.9600 1.9700 1.9800 1.9900
2.0000 2.0100 2.0200 2.0300 2.0400 2.0500 2.0600 2.0700
2.0800 2.0900 2.1000 2.1100 2.1200 2.1300 2.1400 2.1500
2.1600 2.1700 2.1800 2.1900 2.2000 2.2100 2.2200 2.2300
2.2400 2.2500 2.2600 2.2700 2.2800 2.2900 2.3000 2.3100
2.3200 2.3300 2.3400 2.3500 2.3600 2.3700 2.3800 2.3900
2.4000 2.4100 2.4200 2.4300 2.4400 2.4500 2.4600 2.4700
2.4800 2.4900 2.5000 2.5100 2.5200 2.5300 2.5400 2.5500
2.5600 2.5700 2.5800 2.5900 2.6000 2.6100 2.6200 2.6300
2.6400 2.6500 2.6600 2.6700 2.6800 2.6900 2.7000 2.7100
2.7200 2.7300 2.7400 2.7500 2.7600 2.7700 2.7800 2.7900
2.8000 2.8100 2.8200 2.8300 2.8400 2.8500 2.8600 2.8700
2.8800 2.8900 2.9000 2.9100 2.9200 2.9300 2.9400 2.9500
2.9600 2.9700 2.9800 2.9900 3.0000 3.0100 3.0200 3.0300
3.0400 3.0500 3.0600 3.0700 3.0800 3.0900 3.1000 3.1100
3.1200 3.1300 3.1400 3.1500 3.1600 3.1700 3.1800 3.1900
3.2000 3.2100 3.2200 3.2300 3.2400 3.2500 3.2600 3.2700
3.2800 3.2900 3.3000 3.3100 3.3200 3.3300 3.3400 3.3500
3.3600 3.3700 3.3800 3.3900 3.4000 3.4100 3.4200 3.4300
3.4400 3.4500 3.4600 3.4700 3.4800 3.4900 3.5000 3.5100
3.5200 3.5300 3.5400 3.5500 3.5600 3.5700 3.5800 3.5900
3.6000 3.6100 3.6200 3.6300 3.6400 3.6500 3.6600 3.6700
3.6800 3.6900 3.7000 3.7100 3.7200 3.7300 3.7400 3.7500
3.7600 3.7700 3.7800 3.7900 3.8000 3.8100 3.8200 3.8300
3.8400 3.8500 3.8600 3.8700 3.8800 3.8900 3.9000 3.9100
3.9200 3.9300 3.9400 3.9500 3.9600 3.9700 3.9800 3.9900
4.0000 4.0100 4.0200 4.0300 4.0400 4.0500 4.0600 4.0700
4.0800 4.0900 4.1000 4.1100 4.1200 4.1300 4.1400 4.1500
4.1600 4.1700 4.1800 4.1900 4.2000 4.2100 4.2200 4.2300
4.2400 4.2500 4.2600 4.2700 4.2800 4.2900 4.3000 4.3100
4.3200 4.3300 4.3400 4.3500 4.3600 4.3700 4.3800 4.3900
4.4000 4.4100 4.4200 4.4300 4.4400 4.4500 4.4600 4.4700
4.4800 4.4900 4.5000 4.5100 4.5200 4.5300 4.5400 4.5500
4.5600 4.5700 4.5800 4.5900 4.6000 4.6100 4.6200 4.6300
4.6400 4.6500 4.6600 4.6700 4.6800 4.6900 4.7000 4.7100
4.7200 4.7300 4.7400 4.7500 4.7600 4.7700 4.7800 4.7900
4.8000 4.8100 4.8200 4.8300 4.8400 4.8500 4.8600 4.8700
4.8800 4.8900 4.9000 4.9100 4.9200 4.9300 4.9400 4.9500
4.9600 4.9700 4.9800 4.9900 5.0000 5.0100 5.0200 5.0300
5.0400 5.0500 5.0600 5.0700 5.0800 5.0900 5.1000 5.1100
5.1200 5.1300 5.1400 5.1500 5.1600 5.1700 5.1800 5.1900
5.2000 5.2100 5.2200 5.2300 5.2400 5.2500 5.2600 5.2700
5.2800 5.2900 5.3000 5.3100 5.3200 5.3300 5.3400 5.3500
5.3600 5.3700 5.3800 5.3900 5.4000 5.4100 5.4200 5.4300
5.4400 5.4500 5.4600 5.4700 5.4800 5.4900 5.5000 5.5100
5.5200 5.5300 5.5400 5.5500 5.5600 5.5700 5.5800 5.5900
5.6000 5.6100 5.6200 5.6300 5.6400 5.6500 5.6600 5.6700
5.6800 5.6900 5.7000 5.7100 5.7200 5.7300 5.7400 5.7500
5.7600 5.7700 5.7800 5.7900 5.8000 5.8100 5.8200 5.8300
5.8400 5.8500 5.8600 5.8700 5.8800 5.8900 5.9000 5.9100
5.9200 5.9300 5.9400 5.9500 5.9600 5.9700 5.9800 5.9900
6.0000 6.0100 6.0200 6.0300 6.0400 6.0500 6.0600 6.0700
6.0800 6.0900 6.1000 6.1100 6.1200 6.1300 6.1400 6.1500
6.1600 6.1700 6.1800 6.1900 6.2000 6.2100 6.2200 6.2300
6.2400 6.2500 6.2600 6.2700 6.2800 6.2900 6.3000 6.3100
6.3200 6.3300 6.3400 6.3500 6.3600 6.3700 6.3800 6.3900
6.4000 6.4100 6.4200 6.4300 6.4400 6.4500 6.4600 6.4700
6.4800 6.4900 6.5000 6.5100 6.5200 6.5300 6.5400 6.5500
6.5600 6.5700 6.5800 6.5900 6.6000 6.6100 6.6200 6.6300
6.6400 6.6500 6.6600 6.6700 6.6800 6.6900 6.7000 6.7100
6.7200 6.7300 6.7400 6.7500 6.7600 6.7700 6.7800 6.7900
6.8000 6.8100 6.8200 6.8300 6.8400 6.8500 6.8600 6.8700
6.8800 6.8900 6.9000 6.9100 6.9200 6.9300 6.9400 6.9500
6.9600 6.9700 6.9800 6.9900 7.0000 7.0100 7.0200 7.0300
7.0400 7.0500 7.0600 7.0700 7.0800 7.0900 7.1000 7.1100
7.1200 7.1300 7.1400 7.1500 7.1600 7.1700 7.1800 7.1900
7.2000 7.2100 7.2200 7.2300 7.2400 7.2500 7.2600 7.2700
7.2800 7.2900 7.3000 7.3100 7.3200 7.3300 7.3400 7.3500
7.3600 7.3700 7.3800 7.3900 7.4000 7.4100 7.4200 7.4300
7.4400 7.4500 7.4600 7.4700 7.4800 7.4900</PP_R><PP_RAB type="real" size=" 750" columns="8">
0.0100 0.0100 0.0100 0.0100 0.0100 0.0100 0.0100 0.0100
0.0100 0.0100 0.0100 0.0100 0.0100 0.0100 0.0100 0.0100
0.0100 0.0100 0.0100 0.0100 0.0100 0.0100 0.0100 0.0100
0.0100 0.0100 0.0100 0.0100 0.0100 0.0100 0.0100 0.0100
0.0100 0.0100 0.0100 0.0100 0.0100 0.0100 0.0100 0.0100
0.0100 0.0100 0.0100 0.0100 0.0100 0.0100 0.0100 0.0100
0.0100 0.0100 0.0100 0.0100 0.0100 0.0100 0.0100 0.0100
0.0100 0.0100 0.0100 0.0100 0.0100 0.0100 0.0100 0.0100
0.0100 0.0100 0.0100 0.0100 0.0100 0.0100 0.0100 0.0100
0.0100 0.0100 0.0100 0.0100 0.0100 0.0100 0.0100 0.0100
0.0100 0.0100 0.0100 0.0100 0.0100 0.0100 0.0100 0.0100
0.0100 0.0100 0.0100 0.0100 0.0100 0.0100 0.0100 0.0100
0.0100 0.0100 0.0100 0.0100 0.0100 0.0100 0.0100 0.0100
0.0100 0.0100 0.0100 0.0100 0.0100 0.0100 0.0100 0.0100
0.0100 0.0100 0.0100 0.0100 0.0100 0.0100 0.0100 0.0100
0.0100 0.0100 0.0100 0.0100 0.0100 0.0100 0.0100 0.0100
0.0100 0.0100 0.0100 0.0100 0.0100 0.0100 0.0100 0.0100
0.0100 0.0100 0.0100 0.0100 0.0100 0.0100 0.0100 0.0100
0.0100 0.0100 0.0100 0.0100 0.0100 0.0100 0.0100 0.0100
0.0100 0.0100 0.0100 0.0100 0.0100 0.0100 0.0100 0.0100
0.0100 0.0100 0.0100 0.0100 0.0100 0.0100 0.0100 0.0100
0.0100 0.0100 0.0100 0.0100 0.0100 0.0100 0.0100 0.0100
0.0100 0.0100 0.0100 0.0100 0.0100 0.0100 0.0100 0.0100
0.0100 0.0100 0.0100 0.0100 0.0100 0.0100 0.0100 0.0100
0.0100 0.0100 0.0100 0.0100 0.0100 0.0100 0.0100 0.0100
0.0100 0.0100 0.0100 0.0100 0.0100 0.0100 0.0100 0.0100
0.0100 0.0100 0.0100 0.0100 0.0100 0.0100 0.0100 0.0100
0.0100 0.0100 0.0100 0.0100 0.0100 0.0100 0.0100 0.0100
0.0100 0.0100 0.0100 0.0100 0.0100 0.0100 0.0100 0.0100
0.0100 0.0100 0.0100 0.0100 0.0100 0.0100 0.0100 0.0100
0.0100 0.0100 0.0100 0.0100 0.0100 0.0100 0.0100 0.0100
0.0100 0.0100 0.0100 0.0100 0.0100 0.0100 0.0100 0.0100
0.0100 0.0100 0.0100 0.0100 0.0100 0.0100 0.0100 0.0100
0.0100 0.0100 0.0100 0.0100 0.0100 0.0100 0.0100 0.0100
0.0100 0.0100 0.0100 0.0100 0.0100 0.0100 0.0100 0.0100
0.0100 0.0100 0.0100 0.0100 0.0100 0.0100 0.0100 0.0100
0.0100 0.0100 0.0100 0.0100 0.0100 0.0100 0.0100 0.0100
0.0100 0.0100 0.0100 0.0100 0.0100 0.0100 0.0100 0.0100
0.0100 0.0100 0.0100 0.0100 0.0100 0.0100 0.0100 0.0100
0.0100 0.0100 0.0100 0.0100 0.0100 0.0100 0.0100 0.0100
0.0100 0.0100 0.0100 0.0100 0.0100 0.0100 0.0100 0.0100
0.0100 0.0100 0.0100 0.0100 0.0100 0.0100 0.0100 0.0100
0.0100 0.0100 0.0100 0.0100 0.0100 0.0100 0.0100 0.0100
0.0100 0.0100 0.0100 0.0100 0.0100 0.0100 0.0100 0.0100
0.0100 0.0100 0.0100 0.0100 0.0100 0.0100 0.0100 0.0100
0.0100 0.0100 0.0100 0.0100 0.0100 0.0100 0.0100 0.0100
0.0100 0.0100 0.0100 0.0100 0.0100 0.0100 0.0100 0.0100
0.0100 0.0100 0.0100 0.0100 0.0100 0.0100 0.0100 0.0100
0.0100 0.0100 0.0100 0.0100 0.0100 0.0100 0.0100 0.0100
0.0100 0.0100 0.0100 0.0100 0.0100 0.0100 0.0100 0.0100
0.0100 0.0100 0.0100 0.0100 0.0100 0.0100 0.0100 0.0100
0.0100 0.0100 0.0100 0.0100 0.0100 0.0100 0.0100 0.0100
0.0100 0.0100 0.0100 0.0100 0.0100 0.0100 0.0100 0.0100
0.0100 0.0100 0.0100 0.0100 0.0100 0.0100 0.0100 0.0100
0.0100 0.0100 0.0100 0.0100 0.0100 0.0100 0.0100 0.0100
0.0100 0.0100 0.0100 0.0100 0.0100 0.0100 0.0100 0.0100
0.0100 0.0100 0.0100 0.0100 0.0100 0.0100 0.0100 0.0100
0.0100 0.0100 0.0100 0.0100 0.0100 0.0100 0.0100 0.0100
0.0100 0.0100 0.0100 0.0100 0.0100 0.0100 0.0100 0.0100
0.0100 0.0100 0.0100 0.0100 0.0100 0.0100 0.0100 0.0100
0.0100 0.0100 0.0100 0.0100 0.0100 0.0100 0.0100 0.0100
0.0100 0.0100 0.0100 0.0100 0.0100 0.0100 0.0100 0.0100
0.0100 0.0100 0.0100 0.0100 0.0100 0.0100 0.0100 0.0100
0.0100 0.0100 0.0100 0.0100 0.0100 0.0100 0.0100 0.0100
0.0100 0.0100 0.0100 0.0100 0.0100 0.0100 0.0100 0.0100
0.0100 0.0100 0.0100 0.0100 0.0100 0.0100 0.0100 0.0100
0.0100 0.0100 0.0100 0.0100 0.0100 0.0100 0.0100 0.0100
0.0100 0.0100 0.0100 0.0100 0.0100 0.0100 0.0100 0.0100
0.0100 0.0100 0.0100 0.0100 0.0100 0.0100 0.0100 0.0100
0.0100 0.0100 0.0100 0.0100 0.0100 0.0100 0.0100 0.0100
0.0100 0.0100 0.0100 0.0100 0.0100 0.0100 0.0100 0.0100
0.0100 0.0100 0.0100 0.0100 0.0100 0.0100 0.0100 0.0100
0.0100 0.0100 0.0100 0.0100 0.0100 0.0100 0.0100 0.0100
0.0100 0.0100 0.0100 0.0100 0.0100 0.0100 0.0100 0.0100
0.0100 0.0100 0.0100 0.0100 0.0100 0.0100 0.0100 0.0100
0.0100 0.0100 0.0100 0.0100 0.0100 0.0100 0.0100 0.0100
0.0100 0.0100 0.0100 0.0100 0.0100 0.0100 0.0100 0.0100
0.0100 0.0100 0.0100 0.0100 0.0100 0.0100 0.0100 0.0100
0.0100 0.0100 0.0100 0.0100 0.0100 0.0100 0.0100 0.0100
0.0100 0.0100 0.0100 0.0100 0.0100 0.0100 0.0100 0.0100
0.0100 0.0100 0.0100 0.0100 0.0100 0.0100 0.0100 0.0100
0.0100 0.0100 0.0100 0.0100 0.0100 0.0100 0.0100 0.0100
0.0100 0.0100 0.0100 0.0100 0.0100 0.0100 0.0100 0.0100
0.0100 0.0100 0.0100 0.0100 0.0100 0.0100 0.0100 0.0100
0.0100 0.0100 0.0100 0.0100 0.0100 0.0100 0.0100 0.0100
0.0100 0.0100 0.0100 0.0100 0.0100 0.0100 0.0100 0.0100
0.0100 0.0100 0.0100 0.0100 0.0100 0.0100 0.0100 0.0100
0.0100 0.0100 0.0100 0.0100 0.0100 0.0100 0.0100 0.0100
0.0100 0.0100 0.0100 0.0100 0.0100 0.0100 0.0100 0.0100
0.0100 0.0100 0.0100 0.0100 0.0100 0.0100 0.0100 0.0100
0.0100 0.0100 0.0100 0.0100 0.0100 0.0100 0.0100 0.0100
0.0100 0.0100 0.0100 0.0100 0.0100 0.0100 0.0100 0.0100
0.0100 0.0100 0.0100 0.0100 0.0100 0.0100 0.0100 0.0100
0.0100 0.0100 0.0100 0.0100 0.0100 0.0100</PP_RAB></PP_MESH><PP_LOCAL type="real" size=" 750" columns="4">
-2.7455627108E+01 -2.7453309211E+01 -2.7446368163E+01 -2.7434841527E+01
-2.7418790273E+01 -2.7398296503E+01 -2.7373460502E+01 -2.7344397334E+01
-2.7311233213E+01 -2.7274101848E+01 -2.7233140963E+01 -2.7188489121E+01
-2.7140282958E+01 -2.7088654876E+01 -2.7033731214E+01 -2.6975630892E+01
-2.6914464478E+01 -2.6850333640E+01 -2.6783330929E+01 -2.6713539831E+01
-2.6641035034E+01 -2.6565882869E+01 -2.6488141867E+01 -2.6407863411E+01
-2.6325092437E+01 -2.6239868167E+01 -2.6152224857E+01 -2.6062192526E+01
-2.5969797685E+01 -2.5875064022E+01 -2.5778013065E+01 -2.5678664799E+01
-2.5577038246E+01 -2.5473152002E+01 -2.5367024723E+01 -2.5258675577E+01
-2.5148124639E+01 -2.5035393255E+01 -2.4920504353E+01 -2.4803482720E+01
-2.4684355234E+01 -2.4563151058E+01 -2.4439901803E+01 -2.4314641648E+01
-2.4187407431E+01 -2.4058238708E+01 -2.3927177786E+01 -2.3794269720E+01
-2.3659562294E+01 -2.3523105974E+01 -2.3384953836E+01 -2.3245161483E+01
-2.3103786938E+01 -2.2960890521E+01 -2.2816534717E+01 -2.2670784028E+01
-2.2523704816E+01 -2.2375365139E+01 -2.2225834579E+01 -2.2075184064E+01
-2.1923485692E+01 -2.1770812543E+01 -2.1617238502E+01 -2.1462838077E+01
-2.1307686216E+01 -2.1151858135E+01 -2.0995429144E+01 -2.0838474479E+01
-2.0681069146E+01 -2.0523287760E+01 -2.0365204405E+01 -2.0206892489E+01
-2.0048424618E+01 -1.9889872471E+01 -1.9731306691E+01 -1.9572796773E+01
-1.9414410977E+01 -1.9256216237E+01 -1.9098278085E+01 -1.8940660584E+01
-1.8783426265E+01 -1.8626636079E+01 -1.8470349351E+01 -1.8314623743E+01
-1.8159515230E+01 -1.8005078073E+01 -1.7851364802E+01 -1.7698426213E+01
-1.7546311355E+01 -1.7395067535E+01 -1.7244740318E+01 -1.7095373538E+01
-1.6947009305E+01 -1.6799688022E+01 -1.6653448396E+01 -1.6508327459E+01
-1.6364360581E+01 -1.6221581494E+01 -1.6080022304E+01 -1.5939713517E+01
-1.5800684049E+01 -1.5662961251E+01 -1.5526570916E+01 -1.5391537301E+01
-1.5257883135E+01 -1.5125629628E+01 -1.4994796483E+01 -1.4865401899E+01
-1.4737462574E+01 -1.4610993706E+01 -1.4486008991E+01 -1.4362520614E+01
-1.4240539244E+01 -1.4120074024E+01 -1.4001132550E+01 -1.3883720863E+01
-1.3767843418E+01 -1.3653503071E+01 -1.3540701046E+01 -1.3429436908E+01
-1.3319708531E+01 -1.3211512067E+01 -1.3104841902E+01 -1.2999690626E+01
-1.2896048982E+01 -1.2793905829E+01 -1.2693248093E+01 -1.2594060721E+01
-1.2496326631E+01 -1.2400026648E+01 -1.2305139539E+01 -1.2211641717E+01
-1.2119507488E+01 -1.2028710258E+01 -1.1939223593E+01 -1.1851022077E+01
-1.1764080992E+01 -1.1678376283E+01 -1.1593884526E+01 -1.1510582887E+01
-1.1428449071E+01 -1.1347461286E+01 -1.1267598196E+01 -1.1188838890E+01
-1.1111162842E+01 -1.1034549880E+01 -1.0958980153E+01 -1.0884434105E+01
-1.0810892449E+01 -1.0738336138E+01 -1.0666746353E+01 -1.0596104469E+01
-1.0526392081E+01 -1.0457591038E+01 -1.0389683533E+01 -1.0322652260E+01
-1.0256480391E+01 -1.0191151499E+01 -1.0126649576E+01 -1.0062959020E+01
-1.0000064616E+01 -9.9379515286E+00 -9.8766052888E+00 -9.8160117823E+00
-9.7561572390E+00 -9.6970282228E+00 -9.6386116212E+00 -9.5808946360E+00
-9.5238647737E+00 -9.4675098363E+00 -9.4118179130E+00 -9.3567773717E+00
-9.3023768506E+00 -9.2486052509E+00 -9.1954517286E+00 -9.1429056878E+00
-9.0909567735E+00 -9.0395948645E+00 -8.9888100672E+00 -8.9385927091E+00
-8.8889333325E+00 -8.8398226889E+00 -8.7912517329E+00 -8.7432116170E+00
-8.6956936859E+00 -8.6486894715E+00 -8.6021906879E+00 -8.5561892263E+00
-8.5106771505E+00 -8.4656466923E+00 -8.4210902469E+00 -8.3770003691E+00
-8.3333697683E+00 -8.2901913056E+00 -8.2474579888E+00 -8.2051629694E+00
-8.1632995385E+00 -8.1218611237E+00 -8.0808412851E+00 -8.0402337124E+00
-8.0000322214E+00 -7.9602307511E+00 -7.9208233605E+00 -7.8818042255E+00
-7.8431676364E+00 -7.8049079949E+00 -7.7670198113E+00 -7.7294977020E+00
-7.6923363870E+00 -7.6555306874E+00 -7.6190755228E+00 -7.5829659091E+00
-7.5471969565E+00 -7.5117638667E+00 -7.4766619314E+00 -7.4418865297E+00
-7.4074331262E+00 -7.3732972694E+00 -7.3394745892E+00 -7.3059607955E+00
-7.2727516760E+00 -7.2398430950E+00 -7.2072309909E+00 -7.1749113752E+00
-7.1428803306E+00 -7.1111340094E+00 -7.0796686320E+00 -7.0484804855E+00
-7.0175659220E+00 -6.9869213574E+00 -6.9565432699E+00 -6.9264281987E+00
-6.8965727428E+00 -6.8669735592E+00 -6.8376273625E+00 -6.8085309230E+00
-6.7796810658E+00 -6.7510746694E+00 -6.7227086651E+00 -6.6945800353E+00
-6.6666858128E+00 -6.6390230796E+00 -6.6115889660E+00 -6.5843806494E+00
-6.5573953537E+00 -6.5306303479E+00 -6.5040829455E+00 -6.4777505035E+00
-6.4516304216E+00 -6.4257201413E+00 -6.4000171447E+00 -6.3745189544E+00
-6.3492231323E+00 -6.3241272786E+00 -6.2992290315E+00 -6.2745260661E+00
-6.2500160941E+00 -6.2256968625E+00 -6.2015661533E+00 -6.1776217830E+00
-6.1538616014E+00 -6.1302834913E+00 -6.1068853680E+00 -6.0836651784E+00
-6.0606209005E+00 -6.0377505427E+00 -6.0150521436E+00 -5.9925237710E+00
-5.9701635216E+00 -5.9479695205E+00 -5.9259399203E+00 -5.9040729012E+00
-5.8823666700E+00 -5.8608194597E+00 -5.8394295292E+00 -5.8181951627E+00
-5.7971146692E+00 -5.7761863824E+00 -5.7554086596E+00 -5.7347798819E+00
-5.7142984533E+00 -5.6939628009E+00 -5.6737713737E+00 -5.6537226428E+00
-5.6338151009E+00 -5.6140472617E+00 -5.5944176599E+00 -5.5749248504E+00
-5.5555674083E+00 -5.5363439284E+00 -5.5172530248E+00 -5.4982933308E+00
-5.4794634984E+00 -5.4607621978E+00 -5.4421881176E+00 -5.4237399639E+00
-5.4054164604E+00 -5.3872163481E+00 -5.3691383847E+00 -5.3511813447E+00
-5.3333440188E+00 -5.3156252139E+00 -5.2980237525E+00 -5.2805384729E+00
-5.2631682285E+00 -5.2459118878E+00 -5.2287683341E+00 -5.2117364652E+00
-5.1948151933E+00 -5.1780034447E+00 -5.1613001593E+00 -5.1447042910E+00
-5.1282148069E+00 -5.1118306873E+00 -5.0955509256E+00 -5.0793745278E+00
-5.0633005126E+00 -5.0473279112E+00 -5.0314557667E+00 -5.0156831344E+00
-5.0000090815E+00 -4.9844326866E+00 -4.9689530397E+00 -4.9535692425E+00
-4.9382804072E+00 -4.9230856574E+00 -4.9079841273E+00 -4.8929749615E+00
-4.8780573154E+00 -4.8632303543E+00 -4.8484932539E+00 -4.8338451997E+00
-4.8192853871E+00 -4.8048130211E+00 -4.7904273162E+00 -4.7761274964E+00
-4.7619127948E+00 -4.7477824537E+00 -4.7337357244E+00 -4.7197718669E+00
-4.7058901499E+00 -4.6920898509E+00 -4.6783702556E+00 -4.6647306582E+00
-4.6511703610E+00 -4.6376886745E+00 -4.6242849170E+00 -4.6109584148E+00
-4.5977085019E+00 -4.5845345199E+00 -4.5714358181E+00 -4.5584117529E+00
-4.5454616883E+00 -4.5325849954E+00 -4.5197810523E+00 -4.5070492443E+00
-4.4943889635E+00 -4.4817996089E+00 -4.4692805860E+00 -4.4568313071E+00
-4.4444511911E+00 -4.4321396632E+00 -4.4198961549E+00 -4.4077201041E+00
-4.3956109549E+00 -4.3835681573E+00 -4.3715911676E+00 -4.3596794476E+00
-4.3478324655E+00 -4.3360496948E+00 -4.3243306149E+00 -4.3126747108E+00
-4.3010814729E+00 -4.2895503974E+00 -4.2780809855E+00 -4.2666727439E+00
-4.2553251847E+00 -4.2440378248E+00 -4.2328101865E+00 -4.2216417971E+00
-4.2105321888E+00 -4.1994808988E+00 -4.1884874691E+00 -4.1775514465E+00
-4.1666723824E+00 -4.1558498331E+00 -4.1450833593E+00 -4.1343725262E+00
-4.1237169038E+00 -4.1131160662E+00 -4.1025695920E+00 -4.0920770641E+00
-4.0816380695E+00 -4.0712521998E+00 -4.0609190503E+00 -4.0506382206E+00
-4.0404093144E+00 -4.0302319394E+00 -4.0201057070E+00 -4.0100302328E+00
-4.0000051361E+00 -3.9900300399E+00 -3.9801045712E+00 -3.9702283605E+00
-3.9604010421E+00 -3.9506222536E+00 -3.9408916367E+00 -3.9312088361E+00
-3.9215735004E+00 -3.9119852813E+00 -3.9024438341E+00 -3.8929488173E+00
-3.8834998930E+00 -3.8740967263E+00 -3.8647389855E+00 -3.8554263424E+00
-3.8461584718E+00 -3.8369350514E+00 -3.8277557622E+00 -3.8186202884E+00
-3.8095283170E+00 -3.8004795378E+00 -3.7914736440E+00 -3.7825103313E+00
-3.7735892984E+00 -3.7647102470E+00 -3.7558728813E+00 -3.7470769085E+00
-3.7383220385E+00 -3.7296079837E+00 -3.7209344596E+00 -3.7123011838E+00
-3.7037078770E+00 -3.6951542623E+00 -3.6866400652E+00 -3.6781650138E+00
-3.6697288390E+00 -3.6613312737E+00 -3.6529720535E+00 -3.6446509164E+00
-3.6363676027E+00 -3.6281218551E+00 -3.6199134186E+00 -3.6117420406E+00
-3.6036074707E+00 -3.5955094607E+00 -3.5874477648E+00 -3.5794221391E+00
-3.5714323421E+00 -3.5634781346E+00 -3.5555592791E+00 -3.5476755405E+00
-3.5398266858E+00 -3.5320124839E+00 -3.5242327059E+00 -3.5164871248E+00
-3.5087755156E+00 -3.5010976553E+00 -3.4934533228E+00 -3.4858422990E+00
-3.4782643666E+00 -3.4707193104E+00 -3.4632069168E+00 -3.4557269742E+00
-3.4482792728E+00 -3.4408636046E+00 -3.4334797633E+00 -3.4261275446E+00
-3.4188067456E+00 -3.4115171654E+00 -3.4042586048E+00 -3.3970308661E+00
-3.3898337535E+00 -3.3826670727E+00 -3.3755306311E+00 -3.3684242378E+00
-3.3613477032E+00 -3.3543008398E+00 -3.3472834612E+00 -3.3402953827E+00
-3.3333364213E+00 -3.3264063953E+00 -3.3195051246E+00 -3.3126324307E+00
-3.3057881364E+00 -3.2989720661E+00 -3.2921840454E+00 -3.2854239017E+00
-3.2786914635E+00 -3.2719865609E+00 -3.2653090253E+00 -3.2586586895E+00
-3.2520353877E+00 -3.2454389552E+00 -3.2388692290E+00 -3.2323260471E+00
-3.2258092492E+00 -3.2193186758E+00 -3.2128541690E+00 -3.2064155720E+00
-3.2000027296E+00 -3.1936154873E+00 -3.1872536922E+00 -3.1809171926E+00
-3.1746058379E+00 -3.1683194787E+00 -3.1620579668E+00 -3.1558211551E+00
-3.1496088979E+00 -3.1434210504E+00 -3.1372574690E+00 -3.1311180112E+00
-3.1250025358E+00 -3.1189109024E+00 -3.1128429718E+00 -3.1067986061E+00
-3.1007776682E+00 -3.0947800222E+00 -3.0888055331E+00 -3.0828540672E+00
-3.0769254915E+00 -3.0710196743E+00 -3.0651364848E+00 -3.0592757933E+00
-3.0534374707E+00 -3.0476213895E+00 -3.0418274227E+00 -3.0360554444E+00
-3.0303053297E+00 -3.0245769545E+00 -3.0188701960E+00 -3.0131849318E+00
-3.0075210409E+00 -3.0018784028E+00 -2.9962568983E+00 -2.9906564088E+00
-2.9850768166E+00 -2.9795180051E+00 -2.9739798584E+00 -2.9684622614E+00
-2.9629651000E+00 -2.9574882608E+00 -2.9520316314E+00 -2.9465951001E+00
-2.9411785561E+00 -2.9357818894E+00 -2.9304049906E+00 -2.9250477516E+00
-2.9197100645E+00 -2.9143918226E+00 -2.9090929197E+00 -2.9038132507E+00
-2.8985527109E+00 -2.8933111967E+00 -2.8880886048E+00 -2.8828848332E+00
-2.8776997802E+00 -2.8725333450E+00 -2.8673854276E+00 -2.8622559285E+00
-2.8571447490E+00 -2.8520517913E+00 -2.8469769579E+00 -2.8419201525E+00
-2.8368812790E+00 -2.8318602422E+00 -2.8268569477E+00 -2.8218713015E+00
-2.8169032104E+00 -2.8119525819E+00 -2.8070193240E+00 -2.8021033455E+00
-2.7972045558E+00 -2.7923228649E+00 -2.7874581833E+00 -2.7826104225E+00
-2.7777794941E+00 -2.7729653108E+00 -2.7681677855E+00 -2.7633868321E+00
-2.7586223647E+00 -2.7538742983E+00 -2.7491425483E+00 -2.7444270307E+00
-2.7397276622E+00 -2.7350443599E+00 -2.7303770416E+00 -2.7257256257E+00
-2.7210900309E+00 -2.7164701766E+00 -2.7118659830E+00 -2.7072773703E+00
-2.7027042598E+00 -2.6981465730E+00 -2.6936042319E+00 -2.6890771592E+00
-2.6845652781E+00 -2.6800685121E+00 -2.6755867856E+00 -2.6711200231E+00
-2.6666681498E+00 -2.6622310914E+00 -2.6578087741E+00 -2.6534011246E+00
-2.6490080700E+00 -2.6446295378E+00 -2.6402654563E+00 -2.6359157540E+00
-2.6315803600E+00 -2.6272592037E+00 -2.6229522152E+00 -2.6186593248E+00
-2.6143804636E+00 -2.6101155627E+00 -2.6058645541E+00 -2.6016273699E+00
-2.5974039428E+00 -2.5931942060E+00 -2.5889980929E+00 -2.5848155375E+00
-2.5806464743E+00 -2.5764908381E+00 -2.5723485640E+00 -2.5682195878E+00
-2.5641038455E+00 -2.5600012736E+00 -2.5559118090E+00 -2.5518353890E+00
-2.5477719512E+00 -2.5437214337E+00 -2.5396837751E+00 -2.5356589141E+00
-2.5316467900E+00 -2.5276473425E+00 -2.5236605116E+00 -2.5196862376E+00
-2.5157244614E+00 -2.5117751241E+00 -2.5078381671E+00 -2.5039135324E+00
-2.5000011622E+00 -2.4961009992E+00 -2.4922129861E+00 -2.4883370665E+00
-2.4844731839E+00 -2.4806212823E+00 -2.4767813062E+00 -2.4729532002E+00
-2.4691369093E+00 -2.4653323790E+00 -2.4615395549E+00 -2.4577583832E+00
-2.4539888101E+00 -2.4502307825E+00 -2.4464842474E+00 -2.4427491521E+00
-2.4390254442E+00 -2.4353130719E+00 -2.4316119834E+00 -2.4279221274E+00
-2.4242434528E+00 -2.4205759088E+00 -2.4169194450E+00 -2.4132740113E+00
-2.4096395579E+00 -2.4060160351E+00 -2.4024033938E+00 -2.3988015851E+00
-2.3952105602E+00 -2.3916302708E+00 -2.3880606689E+00 -2.3845017067E+00
-2.3809533366E+00 -2.3774155115E+00 -2.3738881844E+00 -2.3703713086E+00
-2.3668648378E+00 -2.3633687259E+00 -2.3598829270E+00 -2.3564073956E+00
-2.3529420864E+00 -2.3494869543E+00 -2.3460419545E+00 -2.3426070426E+00
-2.3391821744E+00 -2.3357673057E+00 -2.3323623930E+00 -2.3289673927E+00
-2.3255822616E+00 -2.3222069568E+00 -2.3188414354E+00 -2.3154856551E+00
-2.3121395736E+00 -2.3088031489E+00 -2.3054763392E+00 -2.3021591032E+00
-2.2988513994E+00 -2.2955531869E+00 -2.2922644249E+00 -2.2889850729E+00
-2.2857150904E+00 -2.2824544374E+00 -2.2792030740E+00 -2.2759609606E+00
-2.2727280578E+00 -2.2695043264E+00 -2.2662897273E+00 -2.2630842219E+00
-2.2598877716E+00 -2.2567003381E+00 -2.2535218834E+00 -2.2503523694E+00
-2.2471917586E+00 -2.2440400134E+00 -2.2408970967E+00 -2.2377629714E+00
-2.2346376006E+00 -2.2315209478E+00 -2.2284129764E+00 -2.2253136504E+00
-2.2222229335E+00 -2.2191407902E+00 -2.2160671846E+00 -2.2130020814E+00
-2.2099454453E+00 -2.2068972414E+00 -2.2038574347E+00 -2.2008259907E+00
-2.1978028748E+00 -2.1947880528E+00 -2.1917814906E+00 -2.1887831543E+00
-2.1857930102E+00 -2.1828110247E+00 -2.1798371646E+00 -2.1768713966E+00
-2.1739136878E+00 -2.1709640053E+00 -2.1680223166E+00 -2.1650885891E+00
-2.1621627907E+00 -2.1592448891E+00 -2.1563348526E+00 -2.1534326492E+00
-2.1505382475E+00 -2.1476516160E+00 -2.1447727235E+00 -2.1419015389E+00
-2.1390380312E+00 -2.1361821698E+00</PP_LOCAL><PP_NONLOCAL><PP_BETA.1 type="real" size=" 750" columns="4" index="1" angular_momentum="0" cutoff_radius_index=" 156" cutoff_radius="    1.5500000000E+00">
4.5851555885E-10 9.8874973877E-02 1.9743036893E-01 2.9534735095E-01
3.9230857939E-01 4.8799896531E-01 5.8210644224E-01 6.7432275372E-01
7.6434426095E-01 8.5187277322E-01 9.3661640309E-01 1.0182904480E+00
1.0966182986E+00 1.1713323734E+00 1.2421750789E+00 1.3088997923E+00
1.3712718649E+00 1.4290696403E+00 1.4820854834E+00 1.5301268148E+00
1.5730171414E+00 1.6105970783E+00 1.6427253506E+00 1.6692797688E+00
1.6901581649E+00 1.7052792817E+00 1.7145836030E+00 1.7180341144E+00
1.7156169837E+00 1.7073421502E+00 1.6932438118E+00 1.6733808007E+00
1.6478368361E+00 1.6167206467E+00 1.5801659535E+00 1.5383313058E+00
1.4913997648E+00 1.4395784280E+00 1.3830977931E+00 1.3222109565E+00
1.2571926480E+00 1.1883380998E+00 1.1159617551E+00 1.0403958175E+00
9.6198864897E-01 8.8110302278E-01 7.9811424058E-01 7.1340812447E-01
6.2737889611E-01 5.4042695661E-01 4.5295658230E-01 3.6537355264E-01
2.7808272774E-01 1.9148559388E-01 1.0597779632E-01 2.1946679184E-02
-6.0231147342E-02 -1.4019219183E-01 -2.1758839804E-01 -2.9208937255E-01
-3.6338450352E-01 -4.3118495138E-01 -4.9522549271E-01 -5.5526619999E-01
-6.1109394068E-01 -6.6252368098E-01 -7.0939958086E-01 -7.5159586885E-01
-7.8901748698E-01 -8.2160049833E-01 -8.4931225172E-01 -8.7215130033E-01
-8.9014707350E-01 -9.0335930300E-01 -9.1187720770E-01 -9.1581844292E-01
-9.1532782272E-01 -9.1057582626E-01 -9.0175690090E-01 -8.8908757726E-01
-8.7280441325E-01 -8.5316178569E-01 -8.3042955012E-01 -8.0489059049E-01
-7.7683828178E-01 -7.4657388955E-01 -7.1440393119E-01 -6.8063752406E-01
-6.4558374590E-01 -6.0954903302E-01 -5.7283464129E-01 -5.3573419444E-01
-4.9853134332E-01 -4.6149755878E-01 -4.2489007928E-01 -3.8895003295E-01
-3.5390075197E-01 -3.1994629501E-01 -2.8727019157E-01 -2.5603441935E-01
-2.2637862373E-01 -1.9841958539E-01 -1.7225093987E-01 -1.4794314981E-01
-1.2554372814E-01 -1.0507770748E-01 -8.6548348560E-02 -6.9938077703E-02
-5.5209640808E-02 -4.2307459029E-02 -3.1159169001E-02 -2.1677328267E-02
-1.3761264819E-02 -7.2990478695E-03 -2.1695557586E-03 1.7553846047E-03
4.6088130142E-03 6.5264328513E-03 7.6444168945E-03 8.0972494013E-03
8.0156313588E-03 7.5244754835E-03 6.7410166910E-03 5.7730623459E-03
4.7174053169E-03 3.6584218570E-03 2.6668732802E-03 1.7993948710E-03
1.0956064304E-03 5.7609419515E-04 2.7759685649E-04 1.5450176110E-04
5.9332991142E-05 -6.6384199954E-06 -6.2436679113E-06 2.6273163945E-06
-1.4331482144E-08 -3.5093769858E-07 0 0
0 0 0 0
0 0 0 0
0 0 0 0
0 0 0 0
0. 0. 0. 0.
0. 0. 0. 0.
0. 0. 0. 0.
0. 0. 0. 0.
0. 0. 0. 0.
0. 0. 0. 0.
0. 0. 0. 0.
0. 0. 0. 0.
0. 0. 0. 0.
0. 0. 0. 0.
0. 0. 0. 0.
0. 0. 0. 0.
0. 0. 0. 0.
0. 0. 0. 0.
0. 0. 0. 0.
0. 0. 0. 0.
0. 0. 0. 0.
0. 0. 0. 0.
0. 0. 0. 0.
0. 0. 0. 0.
0. 0. 0. 0.
0. 0. 0. 0.
0. 0. 0. 0.
0. 0. 0. 0.
0. 0. 0. 0.
0. 0. 0. 0.
0. 0. 0. 0.
0. 0. 0. 0.
0. 0. 0. 0.
0. 0. 0. 0.
0. 0. 0. 0.
0. 0. 0. 0.
0. 0. 0. 0.
0. 0. 0. 0.
0. 0. 0. 0.
0. 0. 0. 0.
0. 0. 0. 0.
0. 0. 0. 0.
0. 0. 0. 0.
0. 0. 0. 0.
0. 0. 0. 0.
0. 0. 0. 0.
0. 0. 0. 0.
0. 0. 0. 0.
0. 0. 0. 0.
0. 0. 0. 0.
0. 0. 0. 0.
0. 0. 0. 0.
0. 0. 0. 0.
0. 0. 0. 0.
0. 0. 0. 0.
0. 0. 0. 0.
0. 0. 0. 0.
0. 0. 0. 0.
0. 0. 0. 0.
0. 0. 0. 0.
0. 0. 0. 0.
0. 0. 0. 0.
0. 0. 0. 0.
0. 0. 0. 0.
0. 0. 0. 0.
0. 0. 0. 0.
0. 0. 0. 0.
0. 0. 0. 0.
0. 0. 0. 0.
0. 0. 0. 0.
0. 0. 0. 0.
0. 0. 0. 0.
0. 0. 0. 0.
0. 0. 0. 0.
0. 0. 0. 0.
0. 0. 0. 0.
0. 0. 0. 0.
0. 0. 0. 0.
0. 0. 0. 0.
0. 0. 0. 0.
0. 0. 0. 0.
0. 0. 0. 0.
0. 0. 0. 0.
0. 0. 0. 0.
0. 0. 0. 0.
0. 0. 0. 0.
0. 0. 0. 0.
0. 0. 0. 0.
0. 0. 0. 0.
0. 0. 0. 0.
0. 0. 0. 0.
0. 0. 0. 0.
0. 0. 0. 0.
0. 0. 0. 0.
0. 0. 0. 0.
0. 0. 0. 0.
0. 0. 0. 0.
0. 0. 0. 0.
0. 0. 0. 0.
0. 0. 0. 0.
0. 0. 0. 0.
0. 0. 0. 0.
0. 0. 0. 0.
0. 0. 0. 0.
0. 0. 0. 0.
0. 0. 0. 0.
0. 0. 0. 0.
0. 0. 0. 0.
0. 0. 0. 0.
0. 0. 0. 0.
0. 0. 0. 0.
0. 0. 0. 0.
0. 0. 0. 0.
0. 0. 0. 0.
0. 0. 0. 0.
0. 0. 0. 0.
0. 0. 0. 0.
0. 0. 0. 0.
0. 0. 0. 0.
0. 0. 0. 0.
0. 0. 0. 0.
0. 0. 0. 0.
0. 0. 0. 0.
0. 0. 0. 0.
0. 0. 0. 0.
0. 0. 0. 0.
0. 0. 0. 0.
0. 0. 0. 0.
0. 0. 0. 0.
0. 0. 0. 0.