<UPF version="2.0.1"><PP_INFO>This pseudopotential file has been produced using the code
ONCVPSP (Optimized Norm-Conservinng Vanderbilt PSeudopotential)
scalar-relativistic version 3.3.0 08/16/2017 by D. R. Hamann
The code is available through a link at URL www.mat-simresearch.com.
Documentation with the package provides a full discription of the
input data below.
While it is not required under the terms of the GNU GPL, it is
suggested that you cite D. R. Hamann, Phys. Rev. B 88, 085117 (2013)
in any publication using these pseudopotentials.<PP_INPUTFILE>
# ATOM AND REFERENCE CONFIGURATION
# atsym z nc nv iexc psfile
Se 34.00 3 5 -1012 upf
#
# n l f energy (Ha)
1 0 2.00
2 0 2.00
2 1 6.00
3 0 2.00
3 1 6.00
3 2 10.00
4 0 2.00
4 1 4.00
#
# PSEUDOPOTENTIAL AND OPTIMIZATION
# lmax
2
#
# l, rc, ep, ncon, nbas, qcut
0 1.20000 -7.81529 4 7 9.60000
1 1.40000 -5.61171 4 7 10.00000
2 1.60000 -1.96195 4 7 10.00000
#
# LOCAL POTENTIAL
# lloc, lpopt, rc(5), dvloc0
4 5 1.20000 0.00000
#
# VANDERBILT-KLEINMAN-BYLANDER PROJECTORs
# l, nproj, debl
0 2 7.17280
1 2 5.36713
2 2 3.50000
#
# MODEL CORE CHARGE
# icmod, fcfact, rcfact
3 5.00000 1.50000
#
# LOG DERIVATIVE ANALYSIS
# epsh1, epsh2, depsh
-12.00 12.00 0.02
#
# OUTPUT GRID
# rlmax, drl
6.00 0.01
#
# TEST CONFIGURATIONS
# ncnf
0
# nvcnf
# n l f</PP_INPUTFILE></PP_INFO><PP_HEADER generated="Generated using ONCVPSP code by D. R. Hamann" author="anonymous" date="180309" comment="" element="Se" pseudo_type="NC" relativistic="scalar" is_ultrasoft="F" is_paw="F" is_coulomb="F" has_so="F" has_wfc="F" has_gipaw="F" core_correction="T" functional="SLA  PW   NOGX NOGC" z_valence="   24.00" total_psenergy="  -6.71661377523E+02" rho_cutoff="   1.19700000000E+01" l_max="2" l_local="-1" mesh_size="  1198" number_of_wfc="5" number_of_proj="6"/><PP_MESH><PP_R type="real" size="1198" columns="8">
0.0000 0.0100 0.0200 0.0300 0.0400 0.0500 0.0600 0.0700
0.0800 0.0900 0.1000 0.1100 0.1200 0.1300 0.1400 0.1500
0.1600 0.1700 0.1800 0.1900 0.2000 0.2100 0.2200 0.2300
0.2400 0.2500 0.2600 0.2700 0.2800 0.2900 0.3000 0.3100
0.3200 0.3300 0.3400 0.3500 0.3600 0.3700 0.3800 0.3900
0.4000 0.4100 0.4200 0.4300 0.4400 0.4500 0.4600 0.4700
0.4800 0.4900 0.5000 0.5100 0.5200 0.5300 0.5400 0.5500
0.5600 0.5700 0.5800 0.5900 0.6000 0.6100 0.6200 0.6300
0.6400 0.6500 0.6600 0.6700 0.6800 0.6900 0.7000 0.7100
0.7200 0.7300 0.7400 0.7500 0.7600 0.7700 0.7800 0.7900
0.8000 0.8100 0.8200 0.8300 0.8400 0.8500 0.8600 0.8700
0.8800 0.8900 0.9000 0.9100 0.9200 0.9300 0.9400 0.9500
0.9600 0.9700 0.9800 0.9900 1.0000 1.0100 1.0200 1.0300
1.0400 1.0500 1.0600 1.0700 1.0800 1.0900 1.1000 1.1100
1.1200 1.1300 1.1400 1.1500 1.1600 1.1700 1.1800 1.1900
1.2000 1.2100 1.2200 1.2300 1.2400 1.2500 1.2600 1.2700
1.2800 1.2900 1.3000 1.3100 1.3200 1.3300 1.3400 1.3500
1.3600 1.3700 1.3800 1.3900 1.4000 1.4100 1.4200 1.4300
1.4400 1.4500 1.4600 1.4700 1.4800 1.4900 1.5000 1.5100
1.5200 1.5300 1.5400 1.5500 1.5600 1.5700 1.5800 1.5900
1.6000 1.6100 1.6200 1.6300 1.6400 1.6500 1.6600 1.6700
1.6800 1.6900 1.7000 1.7100 1.7200 1.7300 1.7400 1.7500
1.7600 1.7700 1.7800 1.7900 1.8000 1.8100 1.8200 1.8300
1.8400 1.8500 1.8600 1.8700 1.8800 1.8900 1.9000 1.9100
1.9200 1.9300 1.9400 1.9500 1.9600 1.9700 1.9800 1.9900
2.0000 2.0100 2.0200 2.0300 2.0400 2.0500 2.0600 2.0700
2.0800 2.0900 2.1000 2.1100 2.1200 2.1300 2.1400 2.1500
2.1600 2.1700 2.1800 2.1900 2.2000 2.2100 2.2200 2.2300
2.2400 2.2500 2.2600 2.2700 2.2800 2.2900 2.3000 2.3100
2.3200 2.3300 2.3400 2.3500 2.3600 2.3700 2.3800 2.3900
2.4000 2.4100 2.4200 2.4300 2.4400 2.4500 2.4600 2.4700
2.4800 2.4900 2.5000 2.5100 2.5200 2.5300 2.5400 2.5500
2.5600 2.5700 2.5800 2.5900 2.6000 2.6100 2.6200 2.6300
2.6400 2.6500 2.6600 2.6700 2.6800 2.6900 2.7000 2.7100
2.7200 2.7300 2.7400 2.7500 2.7600 2.7700 2.7800 2.7900
2.8000 2.8100 2.8200 2.8300 2.8400 2.8500 2.8600 2.8700
2.8800 2.8900 2.9000 2.9100 2.9200 2.9300 2.9400 2.9500
2.9600 2.9700 2.9800 2.9900 3.0000 3.0100 3.0200 3.0300
3.0400 3.0500 3.0600 3.0700 3.0800 3.0900 3.1000 3.1100
3.1200 3.1300 3.1400 3.1500 3.1600 3.1700 3.1800 3.1900
3.2000 3.2100 3.2200 3.2300 3.2400 3.2500 3.2600 3.2700
3.2800 3.2900 3.3000 3.3100 3.3200 3.3300 3.3400 3.3500
3.3600 3.3700 3.3800 3.3900 3.4000 3.4100 3.4200 3.4300
3.4400 3.4500 3.4600 3.4700 3.4800 3.4900 3.5000 3.5100
3.5200 3.5300 3.5400 3.5500 3.5600 3.5700 3.5800 3.5900
3.6000 3.6100 3.6200 3.6300 3.6400 3.6500 3.6600 3.6700
3.6800 3.6900 3.7000 3.7100 3.7200 3.7300 3.7400 3.7500
3.7600 3.7700 3.7800 3.7900 3.8000 3.8100 3.8200 3.8300
3.8400 3.8500 3.8600 3.8700 3.8800 3.8900 3.9000 3.9100
3.9200 3.9300 3.9400 3.9500 3.9600 3.9700 3.9800 3.9900
4.0000 4.0100 4.0200 4.0300 4.0400 4.0500 4.0600 4.0700
4.0800 4.0900 4.1000 4.1100 4.1200 4.1300 4.1400 4.1500
4.1600 4.1700 4.1800 4.1900 4.2000 4.2100 4.2200 4.2300
4.2400 4.2500 4.2600 4.2700 4.2800 4.2900 4.3000 4.3100
4.3200 4.3300 4.3400 4.3500 4.3600 4.3700 4.3800 4.3900
4.4000 4.4100 4.4200 4.4300 4.4400 4.4500 4.4600 4.4700
4.4800 4.4900 4.5000 4.5100 4.5200 4.5300 4.5400 4.5500
4.5600 4.5700 4.5800 4.5900 4.6000 4.6100 4.6200 4.6300
4.6400 4.6500 4.6600 4.6700 4.6800 4.6900 4.7000 4.7100
4.7200 4.7300 4.7400 4.7500 4.7600 4.7700 4.7800 4.7900
4.8000 4.8100 4.8200 4.8300 4.8400 4.8500 4.8600 4.8700
4.8800 4.8900 4.9000 4.9100 4.9200 4.9300 4.9400 4.9500
4.9600 4.9700 4.9800 4.9900 5.0000 5.0100 5.0200 5.0300
5.0400 5.0500 5.0600 5.0700 5.0800 5.0900 5.1000 5.1100
5.1200 5.1300 5.1400 5.1500 5.1600 5.1700 5.1800 5.1900
5.2000 5.2100 5.2200 5.2300 5.2400 5.2500 5.2600 5.2700
5.2800 5.2900 5.3000 5.3100 5.3200 5.3300 5.3400 5.3500
5.3600 5.3700 5.3800 5.3900 5.4000 5.4100 5.4200 5.4300
5.4400 5.4500 5.4600 5.4700 5.4800 5.4900 5.5000 5.5100
5.5200 5.5300 5.5400 5.5500 5.5600 5.5700 5.5800 5.5900
5.6000 5.6100 5.6200 5.6300 5.6400 5.6500 5.6600 5.6700
5.6800 5.6900 5.7000 5.7100 5.7200 5.7300 5.7400 5.7500
5.7600 5.7700 5.7800 5.7900 5.8000 5.8100 5.8200 5.8300
5.8400 5.8500 5.8600 5.8700 5.8800 5.8900 5.9000 5.9100
5.9200 5.9300 5.9400 5.9500 5.9600 5.9700 5.9800 5.9900
6.0000 6.0100 6.0200 6.0300 6.0400 6.0500 6.0600 6.0700
6.0800 6.0900 6.1000 6.1100 6.1200 6.1300 6.1400 6.1500
6.1600 6.1700 6.1800 6.1900 6.2000 6.2100 6.2200 6.2300
6.2400 6.2500 6.2600 6.2700 6.2800 6.2900 6.3000 6.3100
6.3200 6.3300 6.3400 6.3500 6.3600 6.3700 6.3800 6.3900
6.4000 6.4100 6.4200 6.4300 6.4400 6.4500 6.4600 6.4700
6.4800 6.4900 6.5000 6.5100 6.5200 6.5300 6.5400 6.5500
6.5600 6.5700 6.5800 6.5900 6.6000 6.6100 6.6200 6.6300
6.6400 6.6500 6.6600 6.6700 6.6800 6.6900 6.7000 6.7100
6.7200 6.7300 6.7400 6.7500 6.7600 6.7700 6.7800 6.7900
6.8000 6.8100 6.8200 6.8300 6.8400 6.8500 6.8600 6.8700
6.8800 6.8900 6.9000 6.9100 6.9200 6.9300 6.9400 6.9500
6.9600 6.9700 6.9800 6.9900 7.0000 7.0100 7.0200 7.0300
7.0400 7.0500 7.0600 7.0700 7.0800 7.0900 7.1000 7.1100
7.1200 7.1300 7.1400 7.1500 7.1600 7.1700 7.1800 7.1900
7.2000 7.2100 7.2200 7.2300 7.2400 7.2500 7.2600 7.2700
7.2800 7.2900 7.3000 7.3100 7.3200 7.3300 7.3400 7.3500
7.3600 7.3700 7.3800 7.3900 7.4000 7.4100 7.4200 7.4300
7.4400 7.4500 7.4600 7.4700 7.4800 7.4900 7.5000 7.5100
7.5200 7.5300 7.5400 7.5500 7.5600 7.5700 7.5800 7.5900
7.6000 7.6100 7.6200 7.6300 7.6400 7.6500 7.6600 7.6700
7.6800 7.6900 7.7000 7.7100 7.7200 7.7300 7.7400 7.7500
7.7600 7.7700 7.7800 7.7900 7.8000 7.8100 7.8200 7.8300
7.8400 7.8500 7.8600 7.8700 7.8800 7.8900 7.9000 7.9100
7.9200 7.9300 7.9400 7.9500 7.9600 7.9700 7.9800 7.9900
8.0000 8.0100 8.0200 8.0300 8.0400 8.0500 8.0600 8.0700
8.0800 8.0900 8.1000 8.1100 8.1200 8.1300 8.1400 8.1500
8.1600 8.1700 8.1800 8.1900 8.2000 8.2100 8.2200 8.2300
8.2400 8.2500 8.2600 8.2700 8.2800 8.2900 8.3000 8.3100
8.3200 8.3300 8.3400 8.3500 8.3600 8.3700 8.3800 8.3900
8.4000 8.4100 8.4200 8.4300 8.4400 8.4500 8.4600 8.4700
8.4800 8.4900 8.5000 8.5100 8.5200 8.5300 8.5400 8.5500
8.5600 8.5700 8.5800 8.5900 8.6000 8.6100 8.6200 8.6300
8.6400 8.6500 8.6600 8.6700 8.6800 8.6900 8.7000 8.7100
8.7200 8.7300 8.7400 8.7500 8.7600 8.7700 8.7800 8.7900
8.8000 8.8100 8.8200 8.8300 8.8400 8.8500 8.8600 8.8700
8.8800 8.8900 8.9000 8.9100 8.9200 8.9300 8.9400 8.9500
8.9600 8.9700 8.9800 8.9900 9.0000 9.0100 9.0200 9.0300
9.0400 9.0500 9.0600 9.0700 9.0800 9.0900 9.1000 9.1100
9.1200 9.1300 9.1400 9.1500 9.1600 9.1700 9.1800 9.1900
9.2000 9.2100 9.2200 9.2300 9.2400 9.2500 9.2600 9.2700
9.2800 9.2900 9.3000 9.3100 9.3200 9.3300 9.3400 9.3500
9.3600 9.3700 9.3800 9.3900 9.4000 9.4100 9.4200 9.4300
9.4400 9.4500 9.4600 9.4700 9.4800 9.4900 9.5000 9.5100
9.5200 9.5300 9.5400 9.5500 9.5600 9.5700 9.5800 9.5900
9.6000 9.6100 9.6200 9.6300 9.6400 9.6500 9.6600 9.6700
9.6800 9.6900 9.7000 9.7100 9.7200 9.7300 9.7400 9.7500
9.7600 9.7700 9.7800 9.7900 9.8000 9.8100 9.8200 9.8300
9.8400 9.8500 9.8600 9.8700 9.8800 9.8900 9.9000 9.9100
9.9200 9.9300 9.9400 9.9500 9.9600 9.9700 9.9800 9.9900
10.0000 10.0100 10.0200 10.0300 10.0400 10.0500 10.0600 10.0700
10.0800 10.0900 10.1000 10.1100 10.1200 10.1300 10.1400 10.1500
10.1600 10.1700 10.1800 10.1900 10.2000 10.2100 10.2200 10.2300
10.2400 10.2500 10.2600 10.2700 10.2800 10.2900 10.3000 10.3100
10.3200 10.3300 10.3400 10.3500 10.3600 10.3700 10.3800 10.3900
10.4000 10.4100 10.4200 10.4300 10.4400 10.4500 10.4600 10.4700
10.4800 10.4900 10.5000 10.5100 10.5200 10.5300 10.5400 10.5500
10.5600 10.5700 10.5800 10.5900 10.6000 10.6100 10.6200 10.6300
10.6400 10.6500 10.6600 10.6700 10.6800 10.6900 10.7000 10.7100
10.7200 10.7300 10.7400 10.7500 10.7600 10.7700 10.7800 10.7900
10.8000 10.8100 10.8200 10.8300 10.8400 10.8500 10.8600 10.8700
10.8800 10.8900 10.9000 10.9100 10.9200 10.9300 10.9400 10.9500
10.9600 10.9700 10.9800 10.9900 11.0000 11.0100 11.0200 11.0300
11.0400 11.0500 11.0600 11.0700 11.0800 11.0900 11.1000 11.1100
11.1200 11.1300 11.1400 11.1500 11.1600 11.1700 11.1800 11.1900
11.2000 11.2100 11.2200 11.2300 11.2400 11.2500 11.2600 11.2700
11.2800 11.2900 11.3000 11.3100 11.3200 11.3300 11.3400 11.3500
11.3600 11.3700 11.3800 11.3900 11.4000 11.4100 11.4200 11.4300
11.4400 11.4500 11.4600 11.4700 11.4800 11.4900 11.5000 11.5100
11.5200 11.5300 11.5400 11.5500 11.5600 11.5700 11.5800 11.5900
11.6000 11.6100 11.6200 11.6300 11.6400 11.6500 11.6600 11.6700
11.6800 11.6900 11.7000 11.7100 11.7200 11.7300 11.7400 11.7500
11.7600 11.7700 11.7800 11.7900 11.8000 11.8100 11.8200 11.8300
11.8400 11.8500 11.8600 11.8700 11.8800 11.8900 11.9000 11.9100
11.9200 11.9300 11.9400 11.9500 11.9600 11.9700</PP_R><PP_RAB type="real" size="1198" columns="8">
0.0100 0.0100 0.0100 0.0100 0.0100 0.0100 0.0100 0.0100
0.0100 0.0100 0.0100 0.0100 0.0100 0.0100 0.0100 0.0100
0.0100 0.0100 0.0100 0.0100 0.0100 0.0100 0.0100 0.0100
0.0100 0.0100 0.0100 0.0100 0.0100 0.0100 0.0100 0.0100
0.0100 0.0100 0.0100 0.0100 0.0100 0.0100 0.0100 0.0100
0.0100 0.0100 0.0100 0.0100 0.0100 0.0100 0.0100 0.0100
0.0100 0.0100 0.0100 0.0100 0.0100 0.0100 0.0100 0.0100
0.0100 0.0100 0.0100 0.0100 0.0100 0.0100 0.0100 0.0100
0.0100 0.0100 0.0100 0.0100 0.0100 0.0100 0.0100 0.0100
0.0100 0.0100 0.0100 0.0100 0.0100 0.0100 0.0100 0.0100
0.0100 0.0100 0.0100 0.0100 0.0100 0.0100 0.0100 0.0100
0.0100 0.0100 0.0100 0.0100 0.0100 0.0100 0.0100 0.0100
0.0100 0.0100 0.0100 0.0100 0.0100 0.0100 0.0100 0.0100
0.0100 0.0100 0.0100 0.0100 0.0100 0.0100 0.0100 0.0100
0.0100 0.0100 0.0100 0.0100 0.0100 0.0100 0.0100 0.0100
0.0100 0.0100 0.0100 0.0100 0.0100 0.0100 0.0100 0.0100
0.0100 0.0100 0.0100 0.0100 0.0100 0.0100 0.0100 0.0100
0.0100 0.0100 0.0100 0.0100 0.0100 0.0100 0.0100 0.0100
0.0100 0.0100 0.0100 0.0100 0.0100 0.0100 0.0100 0.0100
0.0100 0.0100 0.0100 0.0100 0.0100 0.0100 0.0100 0.0100
0.0100 0.0100 0.0100 0.0100 0.0100 0.0100 0.0100 0.0100
0.0100 0.0100 0.0100 0.0100 0.0100 0.0100 0.0100 0.0100
0.0100 0.0100 0.0100 0.0100 0.0100 0.0100 0.0100 0.0100
0.0100 0.0100 0.0100 0.0100 0.0100 0.0100 0.0100 0.0100
0.0100 0.0100 0.0100 0.0100 0.0100 0.0100 0.0100 0.0100
0.0100 0.0100 0.0100 0.0100 0.0100 0.0100 0.0100 0.0100
0.0100 0.0100 0.0100 0.0100 0.0100 0.0100 0.0100 0.0100
0.0100 0.0100 0.0100 0.0100 0.0100 0.0100 0.0100 0.0100
0.0100 0.0100 0.0100 0.0100 0.0100 0.0100 0.0100 0.0100
0.0100 0.0100 0.0100 0.0100 0.0100 0.0100 0.0100 0.0100
0.0100 0.0100 0.0100 0.0100 0.0100 0.0100 0.0100 0.0100
0.0100 0.0100 0.0100 0.0100 0.0100 0.0100 0.0100 0.0100
0.0100 0.0100 0.0100 0.0100 0.0100 0.0100 0.0100 0.0100
0.0100 0.0100 0.0100 0.0100 0.0100 0.0100 0.0100 0.0100
0.0100 0.0100 0.0100 0.0100 0.0100 0.0100 0.0100 0.0100
0.0100 0.0100 0.0100 0.0100 0.0100 0.0100 0.0100 0.0100
0.0100 0.0100 0.0100 0.0100 0.0100 0.0100 0.0100 0.0100
0.0100 0.0100 0.0100 0.0100 0.0100 0.0100 0.0100 0.0100
0.0100 0.0100 0.0100 0.0100 0.0100 0.0100 0.0100 0.0100
0.0100 0.0100 0.0100 0.0100 0.0100 0.0100 0.0100 0.0100
0.0100 0.0100 0.0100 0.0100 0.0100 0.0100 0.0100 0.0100
0.0100 0.0100 0.0100 0.0100 0.0100 0.0100 0.0100 0.0100
0.0100 0.0100 0.0100 0.0100 0.0100 0.0100 0.0100 0.0100
0.0100 0.0100 0.0100 0.0100 0.0100 0.0100 0.0100 0.0100
0.0100 0.0100 0.0100 0.0100 0.0100 0.0100 0.0100 0.0100
0.0100 0.0100 0.0100 0.0100 0.0100 0.0100 0.0100 0.0100
0.0100 0.0100 0.0100 0.0100 0.0100 0.0100 0.0100 0.0100
0.0100 0.0100 0.0100 0.0100 0.0100 0.0100 0.0100 0.0100
0.0100 0.0100 0.0100 0.0100 0.0100 0.0100 0.0100 0.0100
0.0100 0.0100 0.0100 0.0100 0.0100 0.0100 0.0100 0.0100
0.0100 0.0100 0.0100 0.0100 0.0100 0.0100 0.0100 0.0100
0.0100 0.0100 0.0100 0.0100 0.0100 0.0100 0.0100 0.0100
0.0100 0.0100 0.0100 0.0100 0.0100 0.0100 0.0100 0.0100
0.0100 0.0100 0.0100 0.0100 0.0100 0.0100 0.0100 0.0100
0.0100 0.0100 0.0100 0.0100 0.0100 0.0100 0.0100 0.0100
0.0100 0.0100 0.0100 0.0100 0.0100 0.0100 0.0100 0.0100
0.0100 0.0100 0.0100 0.0100 0.0100 0.0100 0.0100 0.0100
0.0100 0.0100 0.0100 0.0100 0.0100 0.0100 0.0100 0.0100
0.0100 0.0100 0.0100 0.0100 0.0100 0.0100 0.0100 0.0100
0.0100 0.0100 0.0100 0.0100 0.0100 0.0100 0.0100 0.0100
0.0100 0.0100 0.0100 0.0100 0.0100 0.0100 0.0100 0.0100
0.0100 0.0100 0.0100 0.0100 0.0100 0.0100 0.0100 0.0100
0.0100 0.0100 0.0100 0.0100 0.0100 0.0100 0.0100 0.0100
0.0100 0.0100 0.0100 0.0100 0.0100 0.0100 0.0100 0.0100
0.0100 0.0100 0.0100 0.0100 0.0100 0.0100 0.0100 0.0100
0.0100 0.0100 0.0100 0.0100 0.0100 0.0100 0.0100 0.0100
0.0100 0.0100 0.0100 0.0100 0.0100 0.0100 0.0100 0.0100
0.0100 0.0100 0.0100 0.0100 0.0100 0.0100 0.0100 0.0100
0.0100 0.0100 0.0100 0.0100 0.0100 0.0100 0.0100 0.0100
0.0100 0.0100 0.0100 0.0100 0.0100 0.0100 0.0100 0.0100
0.0100 0.0100 0.0100 0.0100 0.0100 0.0100 0.0100 0.0100
0.0100 0.0100 0.0100 0.0100 0.0100 0.0100 0.0100 0.0100
0.0100 0.0100 0.0100 0.0100 0.0100 0.0100 0.0100 0.0100
0.0100 0.0100 0.0100 0.0100 0.0100 0.0100 0.0100 0.0100
0.0100 0.0100 0.0100 0.0100 0.0100 0.0100 0.0100 0.0100
0.0100 0.0100 0.0100 0.0100 0.0100 0.0100 0.0100 0.0100
0.0100 0.0100 0.0100 0.0100 0.0100 0.0100 0.0100 0.0100
0.0100 0.0100 0.0100 0.0100 0.0100 0.0100 0.0100 0.0100
0.0100 0.0100 0.0100 0.0100 0.0100 0.0100 0.0100 0.0100
0.0100 0.0100 0.0100 0.0100 0.0100 0.0100 0.0100 0.0100
0.0100 0.0100 0.0100 0.0100 0.0100 0.0100 0.0100 0.0100
0.0100 0.0100 0.0100 0.0100 0.0100 0.0100 0.0100 0.0100
0.0100 0.0100 0.0100 0.0100 0.0100 0.0100 0.0100 0.0100
0.0100 0.0100 0.0100 0.0100 0.0100 0.0100 0.0100 0.0100
0.0100 0.0100 0.0100 0.0100 0.0100 0.0100 0.0100 0.0100
0.0100 0.0100 0.0100 0.0100 0.0100 0.0100 0.0100 0.0100
0.0100 0.0100 0.0100 0.0100 0.0100 0.0100 0.0100 0.0100
0.0100 0.0100 0.0100 0.0100 0.0100 0.0100 0.0100 0.0100
0.0100 0.0100 0.0100 0.0100 0.0100 0.0100 0.0100 0.0100
0.0100 0.0100 0.0100 0.0100 0.0100 0.0100 0.0100 0.0100
0.0100 0.0100 0.0100 0.0100 0.0100 0.0100 0.0100 0.0100
0.0100 0.0100 0.0100 0.0100 0.0100 0.0100 0.0100 0.0100
0.0100 0.0100 0.0100 0.0100 0.0100 0.0100 0.0100 0.0100
0.0100 0.0100 0.0100 0.0100 0.0100 0.0100 0.0100 0.0100
0.0100 0.0100 0.0100 0.0100 0.0100 0.0100 0.0100 0.0100
0.0100 0.0100 0.0100 0.0100 0.0100 0.0100 0.0100 0.0100
0.0100 0.0100 0.0100 0.0100 0.0100 0.0100 0.0100 0.0100
0.0100 0.0100 0.0100 0.0100 0.0100 0.0100 0.0100 0.0100
0.0100 0.0100 0.0100 0.0100 0.0100 0.0100 0.0100 0.0100
0.0100 0.0100 0.0100 0.0100 0.0100 0.0100 0.0100 0.0100
0.0100 0.0100 0.0100 0.0100 0.0100 0.0100 0.0100 0.0100
0.0100 0.0100 0.0100 0.0100 0.0100 0.0100 0.0100 0.0100
0.0100 0.0100 0.0100 0.0100 0.0100 0.0100 0.0100 0.0100
0.0100 0.0100 0.0100 0.0100 0.0100 0.0100 0.0100 0.0100
0.0100 0.0100 0.0100 0.0100 0.0100 0.0100 0.0100 0.0100
0.0100 0.0100 0.0100 0.0100 0.0100 0.0100 0.0100 0.0100
0.0100 0.0100 0.0100 0.0100 0.0100 0.0100 0.0100 0.0100
0.0100 0.0100 0.0100 0.0100 0.0100 0.0100 0.0100 0.0100
0.0100 0.0100 0.0100 0.0100 0.0100 0.0100 0.0100 0.0100
0.0100 0.0100 0.0100 0.0100 0.0100 0.0100 0.0100 0.0100
0.0100 0.0100 0.0100 0.0100 0.0100 0.0100 0.0100 0.0100
0.0100 0.0100 0.0100 0.0100 0.0100 0.0100 0.0100 0.0100
0.0100 0.0100 0.0100 0.0100 0.0100 0.0100 0.0100 0.0100
0.0100 0.0100 0.0100 0.0100 0.0100 0.0100 0.0100 0.0100
0.0100 0.0100 0.0100 0.0100 0.0100 0.0100 0.0100 0.0100
0.0100 0.0100 0.0100 0.0100 0.0100 0.0100 0.0100 0.0100
0.0100 0.0100 0.0100 0.0100 0.0100 0.0100 0.0100 0.0100
0.0100 0.0100 0.0100 0.0100 0.0100 0.0100 0.0100 0.0100
0.0100 0.0100 0.0100 0.0100 0.0100 0.0100 0.0100 0.0100
0.0100 0.0100 0.0100 0.0100 0.0100 0.0100 0.0100 0.0100
0.0100 0.0100 0.0100 0.0100 0.0100 0.0100 0.0100 0.0100
0.0100 0.0100 0.0100 0.0100 0.0100 0.0100 0.0100 0.0100
0.0100 0.0100 0.0100 0.0100 0.0100 0.0100 0.0100 0.0100
0.0100 0.0100 0.0100 0.0100 0.0100 0.0100 0.0100 0.0100
0.0100 0.0100 0.0100 0.0100 0.0100 0.0100 0.0100 0.0100
0.0100 0.0100 0.0100 0.0100 0.0100 0.0100 0.0100 0.0100
0.0100 0.0100 0.0100 0.0100 0.0100 0.0100 0.0100 0.0100
0.0100 0.0100 0.0100 0.0100 0.0100 0.0100 0.0100 0.0100
0.0100 0.0100 0.0100 0.0100 0.0100 0.0100 0.0100 0.0100
0.0100 0.0100 0.0100 0.0100 0.0100 0.0100 0.0100 0.0100
0.0100 0.0100 0.0100 0.0100 0.0100 0.0100 0.0100 0.0100
0.0100 0.0100 0.0100 0.0100 0.0100 0.0100 0.0100 0.0100
0.0100 0.0100 0.0100 0.0100 0.0100 0.0100 0.0100 0.0100
0.0100 0.0100 0.0100 0.0100 0.0100 0.0100 0.0100 0.0100
0.0100 0.0100 0.0100 0.0100 0.0100 0.0100 0.0100 0.0100
0.0100 0.0100 0.0100 0.0100 0.0100 0.0100 0.0100 0.0100
0.0100 0.0100 0.0100 0.0100 0.0100 0.0100 0.0100 0.0100
0.0100 0.0100 0.0100 0.0100 0.0100 0.0100 0.0100 0.0100
0.0100 0.0100 0.0100 0.0100 0.0100 0.0100 0.0100 0.0100
0.0100 0.0100 0.0100 0.0100 0.0100 0.0100 0.0100 0.0100
0.0100 0.0100 0.0100 0.0100 0.0100 0.0100 0.0100 0.0100
0.0100 0.0100 0.0100 0.0100 0.0100 0.0100 0.0100 0.0100
0.0100 0.0100 0.0100 0.0100 0.0100 0.0100 0.0100 0.0100
0.0100 0.0100 0.0100 0.0100 0.0100 0.0100 0.0100 0.0100
0.0100 0.0100 0.0100 0.0100 0.0100 0.0100 0.0100 0.0100
0.0100 0.0100 0.0100 0.0100 0.0100 0.0100 0.0100 0.0100
0.0100 0.0100 0.0100 0.0100 0.0100 0.0100 0.0100 0.0100
0.0100 0.0100 0.0100 0.0100 0.0100 0.0100 0.0100 0.0100
0.0100 0.0100 0.0100 0.0100 0.0100 0.0100 0.0100 0.0100
0.0100 0.0100 0.0100 0.0100 0.0100 0.0100</PP_RAB></PP_MESH><PP_LOCAL type="real" size="1198" columns="4">
-8.2160717930E+01 -8.2159315663E+01 -8.2155093632E+01 -8.2148006245E+01
-8.2137977660E+01 -8.2124902006E+01 -8.2108643698E+01 -8.2089037837E+01
-8.2065890702E+01 -8.2038980335E+01 -8.2008057221E+01 -8.1972845062E+01
-8.1933041655E+01 -8.1888319880E+01 -8.1838328793E+01 -8.1782694852E+01
-8.1721023271E+01 -8.1652899532E+01 -8.1577891052E+01 -8.1495549050E+01
-8.1405410625E+01 -8.1307001072E+01 -8.1199836471E+01 -8.1083426587E+01
-8.0957278098E+01 -8.0820898206E+01 -8.0673798623E+01 -8.0515499988E+01
-8.0345536675E+01 -8.0163462006E+01 -7.9968853803E+01 -7.9761320209E+01
-7.9540505666E+01 -7.9306096898E+01 -7.9057828715E+01 -7.8795489419E+01
-7.8518925591E+01 -7.8228046013E+01 -7.7922824517E+01 -7.7603301578E+01
-7.7269584538E+01 -7.6921846396E+01 -7.6560323225E+01 -7.6185310302E+01
-7.5797157156E+01 -7.5396261767E+01 -7.4983064197E+01 -7.4558039921E+01
-7.4121693157E+01 -7.3674550402E+01 -7.3217154390E+01 -7.2750058610E+01
-7.2273822464E+01 -7.1789007118E+01 -7.1296172043E+01 -7.0795872207E+01
-7.0288655868E+01 -6.9775062897E+01 -6.9255623553E+01 -6.8730857630E+01
-6.8201273899E+01 -6.7667369787E+01 -6.7129631216E+01 -6.6588532570E+01
-6.6044536728E+01 -6.5498095146E+01 -6.4949647947E+01 -6.4399624008E+01
-6.3848441036E+01 -6.3296505601E+01 -6.2744213152E+01 -6.2191947987E+01
-6.1640083194E+01 -6.1088980558E+01 -6.0538990443E+01 -5.9990451643E+01
-5.9443691227E+01 -5.8899024357E+01 -5.8356754112E+01 -5.7817171304E+01
-5.7280554299E+01 -5.6747168850E+01 -5.6217267944E+01 -5.5691091669E+01
-5.5168867100E+01 -5.4650808221E+01 -5.4137115868E+01 -5.3627977707E+01
-5.3123568253E+01 -5.2624048913E+01 -5.2129568080E+01 -5.1640261252E+01
-5.1156251196E+01 -5.0677648150E+01 -5.0204550055E+01 -4.9737042827E+01
-4.9275200662E+01 -4.8819086372E+01 -4.8368751747E+01 -4.7924237950E+01
-4.7485575924E+01 -4.7052786832E+01 -4.6625882502E+01 -4.6204865887E+01
-4.5789731533E+01 -4.5380466048E+01 -4.4977048567E+01 -4.4579451207E+01
-4.4187639509E+01 -4.3801572857E+01 -4.3421204867E+01 -4.3046483751E+01
-4.2677352624E+01 -4.2313749784E+01 -4.1955608923E+01 -4.1602859291E+01
-4.1255425801E+01 -4.0913229063E+01 -4.0576185358E+01 -4.0244206544E+01
-3.9917200029E+01 -3.9595068239E+01 -3.9277708556E+01 -3.8965017364E+01
-3.8656893950E+01 -3.8353243216E+01 -3.8053974499E+01 -3.7759001352E+01
-3.7468241169E+01 -3.7181614846E+01 -3.6899046425E+01 -3.6620462758E+01
-3.6345793202E+01 -3.6074969326E+01 -3.5807924652E+01 -3.5544594416E+01
-3.5284915363E+01 -3.5028825569E+01 -3.4776264278E+01 -3.4527171773E+01
-3.4281489294E+01 -3.4039158944E+01 -3.3800123607E+01 -3.3564326897E+01
-3.3331713137E+01 -3.3102227415E+01 -3.2875815563E+01 -3.2652424126E+01
-3.2432000339E+01 -3.2214492103E+01 -3.1999847992E+01 -3.1788017257E+01
-3.1578949818E+01 -3.1372596269E+01 -3.1168907880E+01 -3.0967836610E+01
-3.0769335101E+01 -3.0573356696E+01 -3.0379855440E+01 -3.0188786084E+01
-3.0000104099E+01 -2.9813765673E+01 -2.9629727747E+01 -2.9447948079E+01
-2.9268385319E+01 -2.9090999109E+01 -2.8915750109E+01 -2.8742599935E+01
-2.8571511133E+01 -2.8402447117E+01 -2.8235372141E+01 -2.8070251305E+01
-2.7907050526E+01 -2.7745736508E+01 -2.7586276718E+01 -2.7428639368E+01
-2.7272793392E+01 -2.7118708427E+01 -2.6966354792E+01 -2.6815703468E+01
-2.6666726082E+01 -2.6519394888E+01 -2.6373682751E+01 -2.6229563127E+01
-2.6087010051E+01 -2.5945998117E+01 -2.5806502468E+01 -2.5668498778E+01
-2.5531963238E+01 -2.5396872543E+01 -2.5263203879E+01 -2.5130934910E+01
-2.5000043764E+01 -2.4870509025E+01 -2.4742309716E+01 -2.4615425291E+01
-2.4489835624E+01 -2.4365520998E+01 -2.4242462092E+01 -2.4120639977E+01
-2.4000036099E+01 -2.3880632276E+01 -2.3762410685E+01 -2.3645353853E+01
-2.3529444651E+01 -2.3414666285E+01 -2.3301002285E+01 -2.3188436501E+01
-2.3076953093E+01 -2.2966536524E+01 -2.2857171553E+01 -2.2748843228E+01
-2.2641536880E+01 -2.2535238113E+01 -2.2429932803E+01 -2.2325607088E+01
-2.2222247361E+01 -2.2119840268E+01 -2.2018372698E+01 -2.1917831782E+01
-2.1818204882E+01 -2.1719479592E+01 -2.1621643726E+01 -2.1524685320E+01
-2.1428592622E+01 -2.1333354088E+01 -2.1238958380E+01 -2.1145394360E+01
-2.1052651083E+01 -2.0960717797E+01 -2.0869583938E+01 -2.0779239122E+01
-2.0689673147E+01 -2.0600875985E+01 -2.0512837778E+01 -2.0425548838E+01
-2.0338999640E+01 -2.0253180820E+01 -2.0168083171E+01 -2.0083697642E+01
-2.0000015330E+01 -1.9917027481E+01 -1.9834725487E+01 -1.9753100880E+01
-1.9672145332E+01 -1.9591850649E+01 -1.9512208772E+01 -1.9433211773E+01
-1.9354851850E+01 -1.9277121327E+01 -1.9200012653E+01 -1.9123518393E+01
-1.9047631235E+01 -1.8972343978E+01 -1.8897649537E+01 -1.8823540938E+01
-1.8750011316E+01 -1.8677053911E+01 -1.8604662071E+01 -1.8532829244E+01
-1.8461548980E+01 -1.8390814927E+01 -1.8320620831E+01 -1.8250960534E+01
-1.8181827968E+01 -1.8113217160E+01 -1.8045122225E+01 -1.7977537367E+01
-1.7910456876E+01 -1.7843875126E+01 -1.7777786577E+01 -1.7712185768E+01
-1.7647067320E+01 -1.7582425933E+01 -1.7518256382E+01 -1.7454553520E+01
-1.7391312276E+01 -1.7328527648E+01 -1.7266194711E+01 -1.7204308606E+01
-1.7142864546E+01 -1.7081857813E+01 -1.7021283752E+01 -1.6961137779E+01
-1.6901415370E+01 -1.6842112067E+01 -1.6783223474E+01 -1.6724745256E+01
-1.6666673138E+01 -1.6609002904E+01 -1.6551730398E+01 -1.6494851518E+01
-1.6438362221E+01 -1.6382258518E+01 -1.6326536473E+01 -1.6271192206E+01
-1.6216221889E+01 -1.6161621742E+01 -1.6107388041E+01 -1.6053517108E+01
-1.6000005316E+01 -1.5946849084E+01 -1.5894044882E+01 -1.5841589223E+01
-1.5789478669E+01 -1.5737709823E+01 -1.5686279337E+01 -1.5635183904E+01
-1.5584420261E+01 -1.5533985185E+01 -1.5483875498E+01 -1.5434088060E+01
-1.5384619774E+01 -1.5335467579E+01 -1.5286628457E+01 -1.5238099425E+01
-1.5189877540E+01 -1.5141959894E+01 -1.5094343617E+01 -1.5047025876E+01
-1.5000003872E+01 -1.4953274840E+01 -1.4906836052E+01 -1.4860684810E+01
-1.4814818454E+01 -1.4769234352E+01 -1.4723929908E+01 -1.4678902556E+01
-1.4634149762E+01 -1.4589669022E+01 -1.4545457862E+01 -1.4501513840E+01
-1.4457834542E+01 -1.4414417582E+01 -1.4371260604E+01 -1.4328361281E+01
-1.4285717311E+01 -1.4243326421E+01 -1.4201186366E+01 -1.4159294925E+01
-1.4117649904E+01 -1.4076249136E+01 -1.4035090479E+01 -1.3994171814E+01
-1.3953491049E+01 -1.3913046114E+01 -1.3872834966E+01 -1.3832855583E+01
-1.3793105967E+01 -1.3753584142E+01 -1.3714288157E+01 -1.3675216081E+01
-1.3636366006E+01 -1.3597736044E+01 -1.3559324332E+01 -1.3521129024E+01
-1.3483148296E+01 -1.3445380346E+01 -1.3407823391E+01 -1.3370475667E+01
-1.3333335430E+01 -1.3296400957E+01 -1.3259670542E+01 -1.3223142499E+01
-1.3186815159E+01 -1.3150686874E+01 -1.3114756011E+01 -1.3079020957E+01
-1.3043480116E+01 -1.3008131908E+01 -1.2972974771E+01 -1.2938007162E+01
-1.2903227550E+01 -1.2868634425E+01 -1.2834226289E+01 -1.2800001664E+01
-1.2765959086E+01 -1.2732097104E+01 -1.2698414287E+01 -1.2664909216E+01
-1.2631580487E+01 -1.2598426713E+01 -1.2565446518E+01 -1.2532638545E+01
-1.2500001446E+01 -1.2467533891E+01 -1.2435234561E+01 -1.2403102154E+01
-1.2371135378E+01 -1.2339332955E+01 -1.2307693622E+01 -1.2276216127E+01
-1.2244899232E+01 -1.2213741711E+01 -1.2182742349E+01 -1.2151899947E+01
-1.2121213314E+01 -1.2090681275E+01 -1.2060302663E+01 -1.2030076324E+01
-1.2000001118E+01 -1.1970075912E+01 -1.1940299589E+01 -1.1910671039E+01
-1.1881189165E+01 -1.1851852881E+01 -1.1822661110E+01 -1.1793612788E+01
-1.1764706860E+01 -1.1735942282E+01 -1.1707318019E+01 -1.1678833046E+01
-1.1650486350E+01 -1.1622276927E+01 -1.1594203781E+01 -1.1566265927E+01
-1.1538462391E+01 -1.1510792204E+01 -1.1483254411E+01 -1.1455848064E+01
-1.1428572223E+01 -1.1401425958E+01 -1.1374408349E+01 -1.1347518483E+01
-1.1320755456E+01 -1.1294118372E+01 -1.1267606346E+01 -1.1241218498E+01
-1.1214953957E+01 -1.1188811862E+01 -1.1162791358E+01 -1.1136891600E+01
-1.1111111747E+01 -1.1085450970E+01 -1.1059908446E+01 -1.1034483359E+01
-1.1009174900E+01 -1.0983982270E+01 -1.0958904675E+01 -1.0933941329E+01
-1.0909091452E+01 -1.0884354274E+01 -1.0859729028E+01 -1.0835214958E+01
-1.0810811311E+01 -1.0786517344E+01 -1.0762332318E+01 -1.0738255503E+01
-1.0714286174E+01 -1.0690423612E+01 -1.0666667106E+01 -1.0643015951E+01
-1.0619469447E+01 -1.0596026901E+01 -1.0572687626E+01 -1.0549450942E+01
-1.0526316173E+01 -1.0503282650E+01 -1.0480349710E+01 -1.0457516696E+01
-1.0434782957E+01 -1.0412147845E+01 -1.0389610721E+01 -1.0367170949E+01
-1.0344827901E+01 -1.0322580951E+01 -1.0300429483E+01 -1.0278372881E+01
-1.0256410539E+01 -1.0234541852E+01 -1.0212766224E+01 -1.0191083062E+01
-1.0169491777E+01 -1.0147991788E+01 -1.0126582516E+01 -1.0105263388E+01
-1.0084033836E+01 -1.0062893298E+01 -1.0041841213E+01 -1.0020877029E+01
-1.0000000195E+01 -9.9792101679E+00 -9.9585064062E+00 -9.9378883744E+00
-9.9173555411E+00 -9.8969073793E+00 -9.8765433664E+00 -9.8562629840E+00
-9.8360657180E+00 -9.8159510584E+00 -9.7959184995E+00 -9.7759675397E+00
-9.7560976814E+00 -9.7363084311E+00 -9.7165992993E+00 -9.6969698004E+00
-9.6774194527E+00 -9.6579477785E+00 -9.6385543038E+00 -9.6192385586E+00
-9.6000000764E+00 -9.5808383945E+00 -9.5617530541E+00 -9.5427435997E+00
-9.5238095798E+00 -9.5049505460E+00 -9.4861660540E+00 -9.4674556626E+00
-9.4488189342E+00 -9.4302554346E+00 -9.4117647331E+00 -9.3933464022E+00
-9.3750000181E+00 -9.3567251598E+00 -9.3385214100E+00 -9.3203883544E+00
-9.3023255819E+00 -9.2843326849E+00 -9.2664092585E+00 -9.2485549013E+00
-9.2307692147E+00 -9.2130518033E+00 -9.1954022747E+00 -9.1778202396E+00
-9.1603053116E+00 -9.1428571071E+00 -9.1254752457E+00 -9.1081593496E+00
-9.0909090440E+00 -9.0737239570E+00 -9.0566037195E+00 -9.0395479649E+00
-9.0225563298E+00 -9.0056284532E+00 -8.9887639770E+00 -8.9719625455E+00
-8.9552238060E+00 -8.9385474081E+00 -8.9219330044E+00 -8.9053802497E+00
-8.8888888015E+00 -8.8724583199E+00 -8.8560884673E+00 -8.8397789090E+00
-8.8235293123E+00 -8.8073393471E+00 -8.7912086859E+00 -8.7751370034E+00
-8.7591239766E+00 -8.7431692852E+00 -8.7272726108E+00 -8.7114336377E+00
-8.6956520521E+00 -8.6799275429E+00 -8.6642598008E+00 -8.6486485191E+00
-8.6330933931E+00 -8.6175941204E+00 -8.6021504007E+00 -8.5867619358E+00
-8.5714284297E+00 -8.5561495886E+00 -8.5409251206E+00 -8.5257547359E+00
-8.5106381470E+00 -8.4955750682E+00 -8.4805652158E+00 -8.4656083083E+00
-8.4507040659E+00 -8.4358522111E+00 -8.4210524680E+00 -8.4063045630E+00
-8.3916082241E+00 -8.3769631813E+00 -8.3623691666E+00 -8.3478259137E+00
-8.3333331582E+00 -8.3188906376E+00 -8.3044980911E+00 -8.2901552598E+00
-8.2758618866E+00 -8.2616177161E+00 -8.2474224947E+00 -8.2332759704E+00
-8.2191778931E+00 -8.2051280145E+00 -8.1911260876E+00 -8.1771718675E+00
-8.1632651108E+00 -8.1494055756E+00 -8.1355930220E+00 -8.1218272113E+00
-8.1081079068E+00 -8.0944348732E+00 -8.0808078767E+00 -8.0672266853E+00
-8.0536910684E+00 -8.0402007969E+00 -8.0267556435E+00 -8.0133553820E+00
-7.9999997881E+00 -7.9866886388E+00 -7.9734217126E+00 -7.9601987894E+00
-7.9470196508E+00 -7.9338840797E+00 -7.9207918602E+00 -7.9077427783E+00
-7.8947366209E+00 -7.8817731768E+00 -7.8688522358E+00 -7.8559735891E+00