<UPF version="2.0.1"><PP_INFO>This pseudopotential file has been produced using the code
ONCVPSP (Optimized Norm-Conservinng Vanderbilt PSeudopotential)
scalar-relativistic version 3.3.0 08/16/2017 by D. R. Hamann
The code is available through a link at URL www.mat-simresearch.com.
Documentation with the package provides a full discription of the
input data below.
While it is not required under the terms of the GNU GPL, it is
suggested that you cite D. R. Hamann, Phys. Rev. B 88, 085117 (2013)
in any publication using these pseudopotentials.<PP_INPUTFILE>
# ATOM AND REFERENCE CONFIGURATION
# atsym z nc nv iexc psfile
Te 52.00 6 5 -1012 upf
#
# n l f energy (Ha)
1 0 2.00
2 0 2.00
2 1 6.00
3 0 2.00
3 1 6.00
3 2 10.00
4 0 2.00
4 1 6.00
4 2 10.00
5 0 2.00
5 1 4.00
#
# PSEUDOPOTENTIAL AND OPTIMIZATION
# lmax
2
#
# l, rc, ep, ncon, nbas, qcut
0 1.30000 -6.02672 4 8 9.40000
1 1.30000 -4.19666 4 8 9.60000
2 1.50000 -1.53247 4 8 10.00000
#
# LOCAL POTENTIAL
# lloc, lpopt, rc(5), dvloc0
4 5 1.30000 0.00000
#
# VANDERBILT-KLEINMAN-BYLANDER PROJECTORs
# l, nproj, debl
0 2 5.46233
1 2 3.97208
2 2 1.60000
#
# MODEL CORE CHARGE
# icmod, fcfact, rcfact
3 5.00000 1.50000
#
# LOG DERIVATIVE ANALYSIS
# epsh1, epsh2, depsh
-12.00 12.00 0.02
#
# OUTPUT GRID
# rlmax, drl
6.00 0.01
#
# TEST CONFIGURATIONS
# ncnf
0
# nvcnf
# n l f</PP_INPUTFILE></PP_INFO><PP_HEADER generated="Generated using ONCVPSP code by D. R. Hamann" author="anonymous" date="180309" comment="" element="Te" pseudo_type="NC" relativistic="scalar" is_ultrasoft="F" is_paw="F" is_coulomb="F" has_so="F" has_wfc="F" has_gipaw="F" core_correction="T" functional="SLA  PW   NOGX NOGC" z_valence="   24.00" total_psenergy="  -5.36903942629E+02" rho_cutoff="   1.27700000000E+01" l_max="2" l_local="-1" mesh_size="  1278" number_of_wfc="5" number_of_proj="6"/><PP_MESH><PP_R type="real" size="1278" columns="8">
0.0000 0.0100 0.0200 0.0300 0.0400 0.0500 0.0600 0.0700
0.0800 0.0900 0.1000 0.1100 0.1200 0.1300 0.1400 0.1500
0.1600 0.1700 0.1800 0.1900 0.2000 0.2100 0.2200 0.2300
0.2400 0.2500 0.2600 0.2700 0.2800 0.2900 0.3000 0.3100
0.3200 0.3300 0.3400 0.3500 0.3600 0.3700 0.3800 0.3900
0.4000 0.4100 0.4200 0.4300 0.4400 0.4500 0.4600 0.4700
0.4800 0.4900 0.5000 0.5100 0.5200 0.5300 0.5400 0.5500
0.5600 0.5700 0.5800 0.5900 0.6000 0.6100 0.6200 0.6300
0.6400 0.6500 0.6600 0.6700 0.6800 0.6900 0.7000 0.7100
0.7200 0.7300 0.7400 0.7500 0.7600 0.7700 0.7800 0.7900
0.8000 0.8100 0.8200 0.8300 0.8400 0.8500 0.8600 0.8700
0.8800 0.8900 0.9000 0.9100 0.9200 0.9300 0.9400 0.9500
0.9600 0.9700 0.9800 0.9900 1.0000 1.0100 1.0200 1.0300
1.0400 1.0500 1.0600 1.0700 1.0800 1.0900 1.1000 1.1100
1.1200 1.1300 1.1400 1.1500 1.1600 1.1700 1.1800 1.1900
1.2000 1.2100 1.2200 1.2300 1.2400 1.2500 1.2600 1.2700
1.2800 1.2900 1.3000 1.3100 1.3200 1.3300 1.3400 1.3500
1.3600 1.3700 1.3800 1.3900 1.4000 1.4100 1.4200 1.4300
1.4400 1.4500 1.4600 1.4700 1.4800 1.4900 1.5000 1.5100
1.5200 1.5300 1.5400 1.5500 1.5600 1.5700 1.5800 1.5900
1.6000 1.6100 1.6200 1.6300 1.6400 1.6500 1.6600 1.6700
1.6800 1.6900 1.7000 1.7100 1.7200 1.7300 1.7400 1.7500
1.7600 1.7700 1.7800 1.7900 1.8000 1.8100 1.8200 1.8300
1.8400 1.8500 1.8600 1.8700 1.8800 1.8900 1.9000 1.9100
1.9200 1.9300 1.9400 1.9500 1.9600 1.9700 1.9800 1.9900
2.0000 2.0100 2.0200 2.0300 2.0400 2.0500 2.0600 2.0700
2.0800 2.0900 2.1000 2.1100 2.1200 2.1300 2.1400 2.1500
2.1600 2.1700 2.1800 2.1900 2.2000 2.2100 2.2200 2.2300
2.2400 2.2500 2.2600 2.2700 2.2800 2.2900 2.3000 2.3100
2.3200 2.3300 2.3400 2.3500 2.3600 2.3700 2.3800 2.3900
2.4000 2.4100 2.4200 2.4300 2.4400 2.4500 2.4600 2.4700
2.4800 2.4900 2.5000 2.5100 2.5200 2.5300 2.5400 2.5500
2.5600 2.5700 2.5800 2.5900 2.6000 2.6100 2.6200 2.6300
2.6400 2.6500 2.6600 2.6700 2.6800 2.6900 2.7000 2.7100
2.7200 2.7300 2.7400 2.7500 2.7600 2.7700 2.7800 2.7900
2.8000 2.8100 2.8200 2.8300 2.8400 2.8500 2.8600 2.8700
2.8800 2.8900 2.9000 2.9100 2.9200 2.9300 2.9400 2.9500
2.9600 2.9700 2.9800 2.9900 3.0000 3.0100 3.0200 3.0300
3.0400 3.0500 3.0600 3.0700 3.0800 3.0900 3.1000 3.1100
3.1200 3.1300 3.1400 3.1500 3.1600 3.1700 3.1800 3.1900
3.2000 3.2100 3.2200 3.2300 3.2400 3.2500 3.2600 3.2700
3.2800 3.2900 3.3000 3.3100 3.3200 3.3300 3.3400 3.3500
3.3600 3.3700 3.3800 3.3900 3.4000 3.4100 3.4200 3.4300
3.4400 3.4500 3.4600 3.4700 3.4800 3.4900 3.5000 3.5100
3.5200 3.5300 3.5400 3.5500 3.5600 3.5700 3.5800 3.5900
3.6000 3.6100 3.6200 3.6300 3.6400 3.6500 3.6600 3.6700
3.6800 3.6900 3.7000 3.7100 3.7200 3.7300 3.7400 3.7500
3.7600 3.7700 3.7800 3.7900 3.8000 3.8100 3.8200 3.8300
3.8400 3.8500 3.8600 3.8700 3.8800 3.8900 3.9000 3.9100
3.9200 3.9300 3.9400 3.9500 3.9600 3.9700 3.9800 3.9900
4.0000 4.0100 4.0200 4.0300 4.0400 4.0500 4.0600 4.0700
4.0800 4.0900 4.1000 4.1100 4.1200 4.1300 4.1400 4.1500
4.1600 4.1700 4.1800 4.1900 4.2000 4.2100 4.2200 4.2300
4.2400 4.2500 4.2600 4.2700 4.2800 4.2900 4.3000 4.3100
4.3200 4.3300 4.3400 4.3500 4.3600 4.3700 4.3800 4.3900
4.4000 4.4100 4.4200 4.4300 4.4400 4.4500 4.4600 4.4700
4.4800 4.4900 4.5000 4.5100 4.5200 4.5300 4.5400 4.5500
4.5600 4.5700 4.5800 4.5900 4.6000 4.6100 4.6200 4.6300
4.6400 4.6500 4.6600 4.6700 4.6800 4.6900 4.7000 4.7100
4.7200 4.7300 4.7400 4.7500 4.7600 4.7700 4.7800 4.7900
4.8000 4.8100 4.8200 4.8300 4.8400 4.8500 4.8600 4.8700
4.8800 4.8900 4.9000 4.9100 4.9200 4.9300 4.9400 4.9500
4.9600 4.9700 4.9800 4.9900 5.0000 5.0100 5.0200 5.0300
5.0400 5.0500 5.0600 5.0700 5.0800 5.0900 5.1000 5.1100
5.1200 5.1300 5.1400 5.1500 5.1600 5.1700 5.1800 5.1900
5.2000 5.2100 5.2200 5.2300 5.2400 5.2500 5.2600 5.2700
5.2800 5.2900 5.3000 5.3100 5.3200 5.3300 5.3400 5.3500
5.3600 5.3700 5.3800 5.3900 5.4000 5.4100 5.4200 5.4300
5.4400 5.4500 5.4600 5.4700 5.4800 5.4900 5.5000 5.5100
5.5200 5.5300 5.5400 5.5500 5.5600 5.5700 5.5800 5.5900
5.6000 5.6100 5.6200 5.6300 5.6400 5.6500 5.6600 5.6700
5.6800 5.6900 5.7000 5.7100 5.7200 5.7300 5.7400 5.7500
5.7600 5.7700 5.7800 5.7900 5.8000 5.8100 5.8200 5.8300
5.8400 5.8500 5.8600 5.8700 5.8800 5.8900 5.9000 5.9100
5.9200 5.9300 5.9400 5.9500 5.9600 5.9700 5.9800 5.9900
6.0000 6.0100 6.0200 6.0300 6.0400 6.0500 6.0600 6.0700
6.0800 6.0900 6.1000 6.1100 6.1200 6.1300 6.1400 6.1500
6.1600 6.1700 6.1800 6.1900 6.2000 6.2100 6.2200 6.2300
6.2400 6.2500 6.2600 6.2700 6.2800 6.2900 6.3000 6.3100
6.3200 6.3300 6.3400 6.3500 6.3600 6.3700 6.3800 6.3900
6.4000 6.4100 6.4200 6.4300 6.4400 6.4500 6.4600 6.4700
6.4800 6.4900 6.5000 6.5100 6.5200 6.5300 6.5400 6.5500
6.5600 6.5700 6.5800 6.5900 6.6000 6.6100 6.6200 6.6300
6.6400 6.6500 6.6600 6.6700 6.6800 6.6900 6.7000 6.7100
6.7200 6.7300 6.7400 6.7500 6.7600 6.7700 6.7800 6.7900
6.8000 6.8100 6.8200 6.8300 6.8400 6.8500 6.8600 6.8700
6.8800 6.8900 6.9000 6.9100 6.9200 6.9300 6.9400 6.9500
6.9600 6.9700 6.9800 6.9900 7.0000 7.0100 7.0200 7.0300
7.0400 7.0500 7.0600 7.0700 7.0800 7.0900 7.1000 7.1100
7.1200 7.1300 7.1400 7.1500 7.1600 7.1700 7.1800 7.1900
7.2000 7.2100 7.2200 7.2300 7.2400 7.2500 7.2600 7.2700
7.2800 7.2900 7.3000 7.3100 7.3200 7.3300 7.3400 7.3500
7.3600 7.3700 7.3800 7.3900 7.4000 7.4100 7.4200 7.4300
7.4400 7.4500 7.4600 7.4700 7.4800 7.4900 7.5000 7.5100
7.5200 7.5300 7.5400 7.5500 7.5600 7.5700 7.5800 7.5900
7.6000 7.6100 7.6200 7.6300 7.6400 7.6500 7.6600 7.6700
7.6800 7.6900 7.7000 7.7100 7.7200 7.7300 7.7400 7.7500
7.7600 7.7700 7.7800 7.7900 7.8000 7.8100 7.8200 7.8300
7.8400 7.8500 7.8600 7.8700 7.8800 7.8900 7.9000 7.9100
7.9200 7.9300 7.9400 7.9500 7.9600 7.9700 7.9800 7.9900
8.0000 8.0100 8.0200 8.0300 8.0400 8.0500 8.0600 8.0700
8.0800 8.0900 8.1000 8.1100 8.1200 8.1300 8.1400 8.1500
8.1600 8.1700 8.1800 8.1900 8.2000 8.2100 8.2200 8.2300
8.2400 8.2500 8.2600 8.2700 8.2800 8.2900 8.3000 8.3100
8.3200 8.3300 8.3400 8.3500 8.3600 8.3700 8.3800 8.3900
8.4000 8.4100 8.4200 8.4300 8.4400 8.4500 8.4600 8.4700
8.4800 8.4900 8.5000 8.5100 8.5200 8.5300 8.5400 8.5500
8.5600 8.5700 8.5800 8.5900 8.6000 8.6100 8.6200 8.6300
8.6400 8.6500 8.6600 8.6700 8.6800 8.6900 8.7000 8.7100
8.7200 8.7300 8.7400 8.7500 8.7600 8.7700 8.7800 8.7900
8.8000 8.8100 8.8200 8.8300 8.8400 8.8500 8.8600 8.8700
8.8800 8.8900 8.9000 8.9100 8.9200 8.9300 8.9400 8.9500
8.9600 8.9700 8.9800 8.9900 9.0000 9.0100 9.0200 9.0300
9.0400 9.0500 9.0600 9.0700 9.0800 9.0900 9.1000 9.1100
9.1200 9.1300 9.1400 9.1500 9.1600 9.1700 9.1800 9.1900
9.2000 9.2100 9.2200 9.2300 9.2400 9.2500 9.2600 9.2700
9.2800 9.2900 9.3000 9.3100 9.3200 9.3300 9.3400 9.3500
9.3600 9.3700 9.3800 9.3900 9.4000 9.4100 9.4200 9.4300
9.4400 9.4500 9.4600 9.4700 9.4800 9.4900 9.5000 9.5100
9.5200 9.5300 9.5400 9.5500 9.5600 9.5700 9.5800 9.5900
9.6000 9.6100 9.6200 9.6300 9.6400 9.6500 9.6600 9.6700
9.6800 9.6900 9.7000 9.7100 9.7200 9.7300 9.7400 9.7500
9.7600 9.7700 9.7800 9.7900 9.8000 9.8100 9.8200 9.8300
9.8400 9.8500 9.8600 9.8700 9.8800 9.8900 9.9000 9.9100
9.9200 9.9300 9.9400 9.9500 9.9600 9.9700 9.9800 9.9900
10.0000 10.0100 10.0200 10.0300 10.0400 10.0500 10.0600 10.0700
10.0800 10.0900 10.1000 10.1100 10.1200 10.1300 10.1400 10.1500
10.1600 10.1700 10.1800 10.1900 10.2000 10.2100 10.2200 10.2300
10.2400 10.2500 10.2600 10.2700 10.2800 10.2900 10.3000 10.3100
10.3200 10.3300 10.3400 10.3500 10.3600 10.3700 10.3800 10.3900
10.4000 10.4100 10.4200 10.4300 10.4400 10.4500 10.4600 10.4700
10.4800 10.4900 10.5000 10.5100 10.5200 10.5300 10.5400 10.5500
10.5600 10.5700 10.5800 10.5900 10.6000 10.6100 10.6200 10.6300
10.6400 10.6500 10.6600 10.6700 10.6800 10.6900 10.7000 10.7100
10.7200 10.7300 10.7400 10.7500 10.7600 10.7700 10.7800 10.7900
10.8000 10.8100 10.8200 10.8300 10.8400 10.8500 10.8600 10.8700
10.8800 10.8900 10.9000 10.9100 10.9200 10.9300 10.9400 10.9500
10.9600 10.9700 10.9800 10.9900 11.0000 11.0100 11.0200 11.0300
11.0400 11.0500 11.0600 11.0700 11.0800 11.0900 11.1000 11.1100
11.1200 11.1300 11.1400 11.1500 11.1600 11.1700 11.1800 11.1900
11.2000 11.2100 11.2200 11.2300 11.2400 11.2500 11.2600 11.2700
11.2800 11.2900 11.3000 11.3100 11.3200 11.3300 11.3400 11.3500
11.3600 11.3700 11.3800 11.3900 11.4000 11.4100 11.4200 11.4300
11.4400 11.4500 11.4600 11.4700 11.4800 11.4900 11.5000 11.5100
11.5200 11.5300 11.5400 11.5500 11.5600 11.5700 11.5800 11.5900
11.6000 11.6100 11.6200 11.6300 11.6400 11.6500 11.6600 11.6700
11.6800 11.6900 11.7000 11.7100 11.7200 11.7300 11.7400 11.7500
11.7600 11.7700 11.7800 11.7900 11.8000 11.8100 11.8200 11.8300
11.8400 11.8500 11.8600 11.8700 11.8800 11.8900 11.9000 11.9100
11.9200 11.9300 11.9400 11.9500 11.9600 11.9700 11.9800 11.9900
12.0000 12.0100 12.0200 12.0300 12.0400 12.0500 12.0600 12.0700
12.0800 12.0900 12.1000 12.1100 12.1200 12.1300 12.1400 12.1500
12.1600 12.1700 12.1800 12.1900 12.2000 12.2100 12.2200 12.2300
12.2400 12.2500 12.2600 12.2700 12.2800 12.2900 12.3000 12.3100
12.3200 12.3300 12.3400 12.3500 12.3600 12.3700 12.3800 12.3900
12.4000 12.4100 12.4200 12.4300 12.4400 12.4500 12.4600 12.4700
12.4800 12.4900 12.5000 12.5100 12.5200 12.5300 12.5400 12.5500
12.5600 12.5700 12.5800 12.5900 12.6000 12.6100 12.6200 12.6300
12.6400 12.6500 12.6600 12.6700 12.6800 12.6900 12.7000 12.7100
12.7200 12.7300 12.7400 12.7500 12.7600 12.7700</PP_R><PP_RAB type="real" size="1278" columns="8">
0.0100 0.0100 0.0100 0.0100 0.0100 0.0100 0.0100 0.0100
0.0100 0.0100 0.0100 0.0100 0.0100 0.0100 0.0100 0.0100
0.0100 0.0100 0.0100 0.0100 0.0100 0.0100 0.0100 0.0100
0.0100 0.0100 0.0100 0.0100 0.0100 0.0100 0.0100 0.0100
0.0100 0.0100 0.0100 0.0100 0.0100 0.0100 0.0100 0.0100
0.0100 0.0100 0.0100 0.0100 0.0100 0.0100 0.0100 0.0100
0.0100 0.0100 0.0100 0.0100 0.0100 0.0100 0.0100 0.0100
0.0100 0.0100 0.0100 0.0100 0.0100 0.0100 0.0100 0.0100
0.0100 0.0100 0.0100 0.0100 0.0100 0.0100 0.0100 0.0100
0.0100 0.0100 0.0100 0.0100 0.0100 0.0100 0.0100 0.0100
0.0100 0.0100 0.0100 0.0100 0.0100 0.0100 0.0100 0.0100
0.0100 0.0100 0.0100 0.0100 0.0100 0.0100 0.0100 0.0100
0.0100 0.0100 0.0100 0.0100 0.0100 0.0100 0.0100 0.0100
0.0100 0.0100 0.0100 0.0100 0.0100 0.0100 0.0100 0.0100
0.0100 0.0100 0.0100 0.0100 0.0100 0.0100 0.0100 0.0100
0.0100 0.0100 0.0100 0.0100 0.0100 0.0100 0.0100 0.0100
0.0100 0.0100 0.0100 0.0100 0.0100 0.0100 0.0100 0.0100
0.0100 0.0100 0.0100 0.0100 0.0100 0.0100 0.0100 0.0100
0.0100 0.0100 0.0100 0.0100 0.0100 0.0100 0.0100 0.0100
0.0100 0.0100 0.0100 0.0100 0.0100 0.0100 0.0100 0.0100
0.0100 0.0100 0.0100 0.0100 0.0100 0.0100 0.0100 0.0100
0.0100 0.0100 0.0100 0.0100 0.0100 0.0100 0.0100 0.0100
0.0100 0.0100 0.0100 0.0100 0.0100 0.0100 0.0100 0.0100
0.0100 0.0100 0.0100 0.0100 0.0100 0.0100 0.0100 0.0100
0.0100 0.0100 0.0100 0.0100 0.0100 0.0100 0.0100 0.0100
0.0100 0.0100 0.0100 0.0100 0.0100 0.0100 0.0100 0.0100
0.0100 0.0100 0.0100 0.0100 0.0100 0.0100 0.0100 0.0100
0.0100 0.0100 0.0100 0.0100 0.0100 0.0100 0.0100 0.0100
0.0100 0.0100 0.0100 0.0100 0.0100 0.0100 0.0100 0.0100
0.0100 0.0100 0.0100 0.0100 0.0100 0.0100 0.0100 0.0100
0.0100 0.0100 0.0100 0.0100 0.0100 0.0100 0.0100 0.0100
0.0100 0.0100 0.0100 0.0100 0.0100 0.0100 0.0100 0.0100
0.0100 0.0100 0.0100 0.0100 0.0100 0.0100 0.0100 0.0100
0.0100 0.0100 0.0100 0.0100 0.0100 0.0100 0.0100 0.0100
0.0100 0.0100 0.0100 0.0100 0.0100 0.0100 0.0100 0.0100
0.0100 0.0100 0.0100 0.0100 0.0100 0.0100 0.0100 0.0100
0.0100 0.0100 0.0100 0.0100 0.0100 0.0100 0.0100 0.0100
0.0100 0.0100 0.0100 0.0100 0.0100 0.0100 0.0100 0.0100
0.0100 0.0100 0.0100 0.0100 0.0100 0.0100 0.0100 0.0100
0.0100 0.0100 0.0100 0.0100 0.0100 0.0100 0.0100 0.0100
0.0100 0.0100 0.0100 0.0100 0.0100 0.0100 0.0100 0.0100
0.0100 0.0100 0.0100 0.0100 0.0100 0.0100 0.0100 0.0100
0.0100 0.0100 0.0100 0.0100 0.0100 0.0100 0.0100 0.0100
0.0100 0.0100 0.0100 0.0100 0.0100 0.0100 0.0100 0.0100
0.0100 0.0100 0.0100 0.0100 0.0100 0.0100 0.0100 0.0100
0.0100 0.0100 0.0100 0.0100 0.0100 0.0100 0.0100 0.0100
0.0100 0.0100 0.0100 0.0100 0.0100 0.0100 0.0100 0.0100
0.0100 0.0100 0.0100 0.0100 0.0100 0.0100 0.0100 0.0100
0.0100 0.0100 0.0100 0.0100 0.0100 0.0100 0.0100 0.0100
0.0100 0.0100 0.0100 0.0100 0.0100 0.0100 0.0100 0.0100
0.0100 0.0100 0.0100 0.0100 0.0100 0.0100 0.0100 0.0100
0.0100 0.0100 0.0100 0.0100 0.0100 0.0100 0.0100 0.0100
0.0100 0.0100 0.0100 0.0100 0.0100 0.0100 0.0100 0.0100
0.0100 0.0100 0.0100 0.0100 0.0100 0.0100 0.0100 0.0100
0.0100 0.0100 0.0100 0.0100 0.0100 0.0100 0.0100 0.0100
0.0100 0.0100 0.0100 0.0100 0.0100 0.0100 0.0100 0.0100
0.0100 0.0100 0.0100 0.0100 0.0100 0.0100 0.0100 0.0100
0.0100 0.0100 0.0100 0.0100 0.0100 0.0100 0.0100 0.0100
0.0100 0.0100 0.0100 0.0100 0.0100 0.0100 0.0100 0.0100
0.0100 0.0100 0.0100 0.0100 0.0100 0.0100 0.0100 0.0100
0.0100 0.0100 0.0100 0.0100 0.0100 0.0100 0.0100 0.0100
0.0100 0.0100 0.0100 0.0100 0.0100 0.0100 0.0100 0.0100
0.0100 0.0100 0.0100 0.0100 0.0100 0.0100 0.0100 0.0100
0.0100 0.0100 0.0100 0.0100 0.0100 0.0100 0.0100 0.0100
0.0100 0.0100 0.0100 0.0100 0.0100 0.0100 0.0100 0.0100
0.0100 0.0100 0.0100 0.0100 0.0100 0.0100 0.0100 0.0100
0.0100 0.0100 0.0100 0.0100 0.0100 0.0100 0.0100 0.0100
0.0100 0.0100 0.0100 0.0100 0.0100 0.0100 0.0100 0.0100
0.0100 0.0100 0.0100 0.0100 0.0100 0.0100 0.0100 0.0100
0.0100 0.0100 0.0100 0.0100 0.0100 0.0100 0.0100 0.0100
0.0100 0.0100 0.0100 0.0100 0.0100 0.0100 0.0100 0.0100
0.0100 0.0100 0.0100 0.0100 0.0100 0.0100 0.0100 0.0100
0.0100 0.0100 0.0100 0.0100 0.0100 0.0100 0.0100 0.0100
0.0100 0.0100 0.0100 0.0100 0.0100 0.0100 0.0100 0.0100
0.0100 0.0100 0.0100 0.0100 0.0100 0.0100 0.0100 0.0100
0.0100 0.0100 0.0100 0.0100 0.0100 0.0100 0.0100 0.0100
0.0100 0.0100 0.0100 0.0100 0.0100 0.0100 0.0100 0.0100
0.0100 0.0100 0.0100 0.0100 0.0100 0.0100 0.0100 0.0100
0.0100 0.0100 0.0100 0.0100 0.0100 0.0100 0.0100 0.0100
0.0100 0.0100 0.0100 0.0100 0.0100 0.0100 0.0100 0.0100
0.0100 0.0100 0.0100 0.0100 0.0100 0.0100 0.0100 0.0100
0.0100 0.0100 0.0100 0.0100 0.0100 0.0100 0.0100 0.0100
0.0100 0.0100 0.0100 0.0100 0.0100 0.0100 0.0100 0.0100
0.0100 0.0100 0.0100 0.0100 0.0100 0.0100 0.0100 0.0100
0.0100 0.0100 0.0100 0.0100 0.0100 0.0100 0.0100 0.0100
0.0100 0.0100 0.0100 0.0100 0.0100 0.0100 0.0100 0.0100
0.0100 0.0100 0.0100 0.0100 0.0100 0.0100 0.0100 0.0100
0.0100 0.0100 0.0100 0.0100 0.0100 0.0100 0.0100 0.0100
0.0100 0.0100 0.0100 0.0100 0.0100 0.0100 0.0100 0.0100
0.0100 0.0100 0.0100 0.0100 0.0100 0.0100 0.0100 0.0100
0.0100 0.0100 0.0100 0.0100 0.0100 0.0100 0.0100 0.0100
0.0100 0.0100 0.0100 0.0100 0.0100 0.0100 0.0100 0.0100
0.0100 0.0100 0.0100 0.0100 0.0100 0.0100 0.0100 0.0100
0.0100 0.0100 0.0100 0.0100 0.0100 0.0100 0.0100 0.0100
0.0100 0.0100 0.0100 0.0100 0.0100 0.0100 0.0100 0.0100
0.0100 0.0100 0.0100 0.0100 0.0100 0.0100 0.0100 0.0100
0.0100 0.0100 0.0100 0.0100 0.0100 0.0100 0.0100 0.0100
0.0100 0.0100 0.0100 0.0100 0.0100 0.0100 0.0100 0.0100
0.0100 0.0100 0.0100 0.0100 0.0100 0.0100 0.0100 0.0100
0.0100 0.0100 0.0100 0.0100 0.0100 0.0100 0.0100 0.0100
0.0100 0.0100 0.0100 0.0100 0.0100 0.0100 0.0100 0.0100
0.0100 0.0100 0.0100 0.0100 0.0100 0.0100 0.0100 0.0100
0.0100 0.0100 0.0100 0.0100 0.0100 0.0100 0.0100 0.0100
0.0100 0.0100 0.0100 0.0100 0.0100 0.0100 0.0100 0.0100
0.0100 0.0100 0.0100 0.0100 0.0100 0.0100 0.0100 0.0100
0.0100 0.0100 0.0100 0.0100 0.0100 0.0100 0.0100 0.0100
0.0100 0.0100 0.0100 0.0100 0.0100 0.0100 0.0100 0.0100
0.0100 0.0100 0.0100 0.0100 0.0100 0.0100 0.0100 0.0100
0.0100 0.0100 0.0100 0.0100 0.0100 0.0100 0.0100 0.0100
0.0100 0.0100 0.0100 0.0100 0.0100 0.0100 0.0100 0.0100
0.0100 0.0100 0.0100 0.0100 0.0100 0.0100 0.0100 0.0100
0.0100 0.0100 0.0100 0.0100 0.0100 0.0100 0.0100 0.0100
0.0100 0.0100 0.0100 0.0100 0.0100 0.0100 0.0100 0.0100
0.0100 0.0100 0.0100 0.0100 0.0100 0.0100 0.0100 0.0100
0.0100 0.0100 0.0100 0.0100 0.0100 0.0100 0.0100 0.0100
0.0100 0.0100 0.0100 0.0100 0.0100 0.0100 0.0100 0.0100
0.0100 0.0100 0.0100 0.0100 0.0100 0.0100 0.0100 0.0100
0.0100 0.0100 0.0100 0.0100 0.0100 0.0100 0.0100 0.0100
0.0100 0.0100 0.0100 0.0100 0.0100 0.0100 0.0100 0.0100
0.0100 0.0100 0.0100 0.0100 0.0100 0.0100 0.0100 0.0100
0.0100 0.0100 0.0100 0.0100 0.0100 0.0100 0.0100 0.0100
0.0100 0.0100 0.0100 0.0100 0.0100 0.0100 0.0100 0.0100
0.0100 0.0100 0.0100 0.0100 0.0100 0.0100 0.0100 0.0100
0.0100 0.0100 0.0100 0.0100 0.0100 0.0100 0.0100 0.0100
0.0100 0.0100 0.0100 0.0100 0.0100 0.0100 0.0100 0.0100
0.0100 0.0100 0.0100 0.0100 0.0100 0.0100 0.0100 0.0100
0.0100 0.0100 0.0100 0.0100 0.0100 0.0100 0.0100 0.0100
0.0100 0.0100 0.0100 0.0100 0.0100 0.0100 0.0100 0.0100
0.0100 0.0100 0.0100 0.0100 0.0100 0.0100 0.0100 0.0100
0.0100 0.0100 0.0100 0.0100 0.0100 0.0100 0.0100 0.0100
0.0100 0.0100 0.0100 0.0100 0.0100 0.0100 0.0100 0.0100
0.0100 0.0100 0.0100 0.0100 0.0100 0.0100 0.0100 0.0100
0.0100 0.0100 0.0100 0.0100 0.0100 0.0100 0.0100 0.0100
0.0100 0.0100 0.0100 0.0100 0.0100 0.0100 0.0100 0.0100
0.0100 0.0100 0.0100 0.0100 0.0100 0.0100 0.0100 0.0100
0.0100 0.0100 0.0100 0.0100 0.0100 0.0100 0.0100 0.0100
0.0100 0.0100 0.0100 0.0100 0.0100 0.0100 0.0100 0.0100
0.0100 0.0100 0.0100 0.0100 0.0100 0.0100 0.0100 0.0100
0.0100 0.0100 0.0100 0.0100 0.0100 0.0100 0.0100 0.0100
0.0100 0.0100 0.0100 0.0100 0.0100 0.0100 0.0100 0.0100
0.0100 0.0100 0.0100 0.0100 0.0100 0.0100 0.0100 0.0100
0.0100 0.0100 0.0100 0.0100 0.0100 0.0100 0.0100 0.0100
0.0100 0.0100 0.0100 0.0100 0.0100 0.0100 0.0100 0.0100
0.0100 0.0100 0.0100 0.0100 0.0100 0.0100 0.0100 0.0100
0.0100 0.0100 0.0100 0.0100 0.0100 0.0100 0.0100 0.0100
0.0100 0.0100 0.0100 0.0100 0.0100 0.0100 0.0100 0.0100
0.0100 0.0100 0.0100 0.0100 0.0100 0.0100 0.0100 0.0100
0.0100 0.0100 0.0100 0.0100 0.0100 0.0100 0.0100 0.0100
0.0100 0.0100 0.0100 0.0100 0.0100 0.0100 0.0100 0.0100
0.0100 0.0100 0.0100 0.0100 0.0100 0.0100 0.0100 0.0100
0.0100 0.0100 0.0100 0.0100 0.0100 0.0100 0.0100 0.0100
0.0100 0.0100 0.0100 0.0100 0.0100 0.0100 0.0100 0.0100
0.0100 0.0100 0.0100 0.0100 0.0100 0.0100 0.0100 0.0100
0.0100 0.0100 0.0100 0.0100 0.0100 0.0100 0.0100 0.0100
0.0100 0.0100 0.0100 0.0100 0.0100 0.0100 0.0100 0.0100
0.0100 0.0100 0.0100 0.0100 0.0100 0.0100 0.0100 0.0100
0.0100 0.0100 0.0100 0.0100 0.0100 0.0100 0.0100 0.0100
0.0100 0.0100 0.0100 0.0100 0.0100 0.0100 0.0100 0.0100
0.0100 0.0100 0.0100 0.0100 0.0100 0.0100 0.0100 0.0100
0.0100 0.0100 0.0100 0.0100 0.0100 0.0100</PP_RAB></PP_MESH><PP_LOCAL type="real" size="1278" columns="4">
-7.5544635786E+01 -7.5542356604E+01 -7.5535515661E+01 -7.5524102835E+01
-7.5508101270E+01 -7.5487487410E+01 -7.5462231050E+01 -7.5432295393E+01
-7.5397637129E+01 -7.5358206528E+01 -7.5313947555E+01 -7.5264798004E+01
-7.5210689649E+01 -7.5151548435E+01 -7.5087294673E+01 -7.5017843283E+01
-7.4943104052E+01 -7.4862981934E+01 -7.4777377377E+01 -7.4686186681E+01
-7.4589302400E+01 -7.4486613769E+01 -7.4378007178E+01 -7.4263366666E+01
-7.4142574470E+01 -7.4015511586E+01 -7.3882058384E+01 -7.3742095234E+01
-7.3595503177E+01 -7.3442164608E+01 -7.3281963991E+01 -7.3114788585E+01
-7.2940529191E+01 -7.2759080901E+01 -7.2570343859E+01 -7.2374224017E+01
-7.2170633885E+01 -7.1959493277E+01 -7.1740730030E+01 -7.1514280707E+01
-7.1280091269E+01 -7.1038117720E+01 -7.0788326698E+01 -7.0530696044E+01
-7.0265215302E+01 -6.9991886175E+01 -6.9710722931E+01 -6.9421752732E+01
-6.9125015918E+01 -6.8820566211E+01 -6.8508470863E+01 -6.8188810728E+01
-6.7861680273E+01 -6.7527187513E+01 -6.7185453886E+01 -6.6836614056E+01
-6.6480815655E+01 -6.6118218964E+01 -6.5748996535E+01 -6.5373332752E+01
-6.4991423354E+01 -6.4603474893E+01 -6.4209704165E+01 -6.3810337589E+01
-6.3405610563E+01 -6.2995766784E+01 -6.2581057544E+01 -6.2161741011E+01
-6.1738081489E+01 -6.1310348674E+01 -6.0878816898E+01 -6.0443764378E+01
-6.0005472464E+01 -5.9564224893E+01 -5.9120307057E+01 -5.8674005283E+01
-5.8225606130E+01 -5.7775395708E+01 -5.7323659014E+01 -5.6870679299E+01
-5.6416737460E+01 -5.5962111456E+01 -5.5507075762E+01 -5.5051900845E+01
-5.4596852678E+01 -5.4142192281E+01 -5.3688175300E+01 -5.3235051615E+01
-5.2783064975E+01 -5.2332452679E+01 -5.1883445270E+01 -5.1436266277E+01
-5.0991131971E+01 -5.0548251160E+01 -5.0107825006E+01 -4.9670046873E+01
-4.9235102189E+01 -4.8803168346E+01 -4.8374414608E+01 -4.7949002050E+01
-4.7527083506E+01 -4.7108803546E+01 -4.6694298457E+01 -4.6283696246E+01
-4.5877116655E+01 -4.5474671184E+01 -4.5076463129E+01 -4.4682587624E+01
-4.4293131698E+01 -4.3908174327E+01 -4.3527786504E+01 -4.3152031302E+01
-4.2780963945E+01 -4.2414631883E+01 -4.2053074859E+01 -4.1696324985E+01
-4.1344406808E+01 -4.0997337375E+01 -4.0655126301E+01 -4.0317775819E+01
-3.9985280836E+01 -3.9657628970E+01 -3.9334800590E+01 -3.9016768838E+01
-3.8703499645E+01 -3.8394951731E+01 -3.8091076603E+01 -3.7791818519E+01
-3.7497114474E+01 -3.7206894144E+01 -3.6921080008E+01 -3.6639586293E+01
-3.6362321488E+01 -3.6089192299E+01 -3.5820107463E+01 -3.5554979210E+01
-3.5293722162E+01 -3.5036253579E+01 -3.4782493150E+01 -3.4532362919E+01
-3.4285787177E+01 -3.4042692347E+01 -3.3803006890E+01 -3.3566661206E+01
-3.3333587535E+01 -3.3103719875E+01 -3.2876993895E+01 -3.2653346857E+01
-3.2432717546E+01 -3.2215046199E+01 -3.2000274454E+01 -3.1788345285E+01
-3.1579203004E+01 -3.1372793250E+01 -3.1169063042E+01 -3.0967960818E+01
-3.0769436330E+01 -3.0573440588E+01 -3.0379925824E+01 -3.0188845453E+01
-3.0000154028E+01 -2.9813807201E+01 -2.9629761689E+01 -2.9447975241E+01
-2.9268406607E+01 -2.9091015505E+01 -2.8915762597E+01 -2.8742609463E+01
-2.8571518572E+01 -2.8402453265E+01 -2.8235377727E+01 -2.8070256967E+01
-2.7907056801E+01 -2.7745743826E+01 -2.7586285405E+01 -2.7428649647E+01
-2.7272805388E+01 -2.7118722171E+01 -2.6966370233E+01 -2.6815720483E+01
-2.6666744485E+01 -2.6519414443E+01 -2.6373703182E+01 -2.6229584133E+01
-2.6087031314E+01 -2.5946019317E+01 -2.5806523288E+01 -2.5668518916E+01
-2.5531982413E+01 -2.5396890503E+01 -2.5263220405E+01 -2.5130949818E+01
-2.5000056913E+01 -2.4870520310E+01 -2.4742319075E+01 -2.4615432700E+01
-2.4489841096E+01 -2.4365524580E+01 -2.4242463862E+01 -2.4120640038E+01
-2.4000034578E+01 -2.3880629315E+01 -2.3762406439E+01 -2.3645348486E+01
-2.3529438330E+01 -2.3414659175E+01 -2.3300994547E+01 -2.3188428287E+01
-2.3076944545E+01 -2.2966527768E+01 -2.2857162702E+01 -2.2748834377E+01
-2.2641528105E+01 -2.2535229474E+01 -2.2429924341E+01 -2.2325598826E+01
-2.2222239308E+01 -2.2119832415E+01 -2.2018365026E+01 -2.1917824259E+01
-2.1818197468E+01 -2.1719472238E+01 -2.1621636381E+01 -2.1524677927E+01
-2.1428585120E+01 -2.1333346419E+01 -2.1238950496E+01 -2.1145386226E+01
-2.1052642684E+01 -2.0960709132E+01 -2.0869575022E+01 -2.0779229973E+01
-2.0689663779E+01 -2.0600866406E+01 -2.0512827998E+01 -2.0425538866E+01
-2.0338989487E+01 -2.0253170495E+01 -2.0168072683E+01 -2.0083686999E+01
-2.0000004541E+01 -1.9917016554E+01 -1.9834714429E+01 -1.9753089699E+01
-1.9672134034E+01 -1.9591839242E+01 -1.9512197262E+01 -1.9433200167E+01
-1.9354840153E+01 -1.9277109547E+01 -1.9200000793E+01 -1.9123506460E+01
-1.9047619234E+01 -1.8972331913E+01 -1.8897637414E+01 -1.8823528762E+01
-1.8749999090E+01 -1.8677041641E+01 -1.8604649760E+01 -1.8532816896E+01
-1.8461536599E+01 -1.8390802517E+01 -1.8320608395E+01 -1.8250948075E+01
-1.8181815490E+01 -1.8113204666E+01 -1.8045109718E+01 -1.7977524850E+01
-1.7910444351E+01 -1.7843862596E+01 -1.7777774044E+01 -1.7712173235E+01
-1.7647054790E+01 -1.7582413407E+01 -1.7518243862E+01 -1.7454541009E+01
-1.7391299775E+01 -1.7328515160E+01 -1.7266182237E+01 -1.7204296148E+01
-1.7142852105E+01 -1.7081845391E+01 -1.7021271351E+01 -1.6961125399E+01
-1.6901403013E+01 -1.6842099735E+01 -1.6783211167E+01 -1.6724732976E+01
-1.6666660886E+01 -1.6608990681E+01 -1.6551718204E+01 -1.6494839355E+01
-1.6438350090E+01 -1.6382246419E+01 -1.6326524408E+01 -1.6271180175E+01
-1.6216209892E+01 -1.6161609781E+01 -1.6107376116E+01 -1.6053505219E+01
-1.5999993464E+01 -1.5946837270E+01 -1.5894033106E+01 -1.5841577486E+01
-1.5789466970E+01 -1.5737698164E+01 -1.5686267717E+01 -1.5635172324E+01
-1.5584408721E+01 -1.5533973686E+01 -1.5483864040E+01 -1.5434076643E+01
-1.5384608398E+01 -1.5335456244E+01 -1.5286617163E+01 -1.5238088173E+01
-1.5189866329E+01 -1.5141948725E+01 -1.5094332491E+01 -1.5047014792E+01
-1.4999992830E+01 -1.4953263840E+01 -1.4906825093E+01 -1.4860673894E+01
-1.4814807579E+01 -1.4769223520E+01 -1.4723919118E+01 -1.4678891808E+01
-1.4634139055E+01 -1.4589658357E+01 -1.4545447239E+01 -1.4501503258E+01
-1.4457824001E+01 -1.4414407083E+01 -1.4371250146E+01 -1.4328350864E+01
-1.4285706935E+01 -1.4243316086E+01 -1.4201176071E+01 -1.4159284671E+01
-1.4117639691E+01 -1.4076238963E+01 -1.4035080346E+01 -1.3994161720E+01
-1.3953480995E+01 -1.3913036100E+01 -1.3872824991E+01 -1.3832845646E+01
-1.3793096069E+01 -1.3753574283E+01 -1.3714278336E+01 -1.3675206298E+01
-1.3636356261E+01 -1.3597726337E+01 -1.3559314662E+01 -1.3521119391E+01
-1.3483138701E+01 -1.3445370788E+01 -1.3407813869E+01 -1.3370466181E+01
-1.3333325980E+01 -1.3296391543E+01 -1.3259661163E+01 -1.3223133155E+01
-1.3186805851E+01 -1.3150677600E+01 -1.3114746772E+01 -1.3079011752E+01
-1.3043470945E+01 -1.3008122771E+01 -1.2972965668E+01 -1.2937998092E+01
-1.2903218513E+01 -1.2868625421E+01 -1.2834217318E+01 -1.2799992726E+01
-1.2765950179E+01 -1.2732088229E+01 -1.2698405444E+01 -1.2664900404E+01
-1.2631571706E+01 -1.2598417963E+01 -1.2565437799E+01 -1.2532629856E+01
-1.2499992788E+01 -1.2467525262E+01 -1.2435225963E+01 -1.2403093585E+01
-1.2371126838E+01 -1.2339324445E+01 -1.2307685140E+01 -1.2276207674E+01
-1.2244890807E+01 -1.2213733314E+01 -1.2182733981E+01 -1.2151891606E+01
-1.2121205001E+01 -1.2090672989E+01 -1.2060294404E+01 -1.2030068092E+01
-1.1999992912E+01 -1.1970067733E+01 -1.1940291436E+01 -1.1910662912E+01
-1.1881181064E+01 -1.1851844805E+01 -1.1822653060E+01 -1.1793604764E+01
-1.1764698861E+01 -1.1735934307E+01 -1.1707310068E+01 -1.1678825121E+01
-1.1650478449E+01 -1.1622269050E+01 -1.1594195928E+01 -1.1566258098E+01
-1.1538454585E+01 -1.1510784422E+01 -1.1483246652E+01 -1.1455840327E+01
-1.1428564509E+01 -1.1401418267E+01 -1.1374400680E+01 -1.1347510836E+01
-1.1320747832E+01 -1.1294110770E+01 -1.1267598766E+01 -1.1241210939E+01
-1.1214946420E+01 -1.1188804346E+01 -1.1162783864E+01 -1.1136884126E+01
-1.1111104295E+01 -1.1085443538E+01 -1.1059901035E+01 -1.1034475968E+01
-1.1009167530E+01 -1.0983974920E+01 -1.0958897345E+01 -1.0933934018E+01
-1.0909084162E+01 -1.0884347003E+01 -1.0859721777E+01 -1.0835207726E+01
-1.0810804098E+01 -1.0786510150E+01 -1.0762325143E+01 -1.0738248347E+01
-1.0714279036E+01 -1.0690416493E+01 -1.0666660006E+01 -1.0643008869E+01
-1.0619462383E+01 -1.0596019855E+01 -1.0572680599E+01 -1.0549443932E+01
-1.0526309181E+01 -1.0503275676E+01 -1.0480342754E+01 -1.0457509758E+01
-1.0434776035E+01 -1.0412140941E+01 -1.0389603834E+01 -1.0367164079E+01
-1.0344821048E+01 -1.0322574115E+01 -1.0300422663E+01 -1.0278366079E+01
-1.0256403753E+01 -1.0234535083E+01 -1.0212759471E+01 -1.0191076325E+01
-1.0169485057E+01 -1.0147985084E+01 -1.0126575828E+01 -1.0105256716E+01
-1.0084027180E+01 -1.0062886657E+01 -1.0041834589E+01 -1.0020870420E+01
-9.9999936022E+00 -9.9792035902E+00 -9.9584998439E+00 -9.9378818275E+00
-9.9173490095E+00 -9.8969008630E+00 -9.8765368653E+00 -9.8562564980E+00
-9.8360592470E+00 -9.8159446024E+00 -9.7959120585E+00 -9.7759611135E+00
-9.7560912700E+00 -9.7363020344E+00 -9.7165929172E+00 -9.6969634329E+00
-9.6774130998E+00 -9.6579414400E+00 -9.6385479798E+00 -9.6192322489E+00
-9.5999937810E+00 -9.5808321134E+00 -9.5617467872E+00 -9.5427373470E+00
-9.5238033411E+00 -9.5049443214E+00 -9.4861598434E+00 -9.4674494659E+00
-9.4488127514E+00 -9.4302492656E+00 -9.4117585779E+00 -9.3933402609E+00
-9.3749938904E+00 -9.3567190458E+00 -9.3385153096E+00 -9.3203822675E+00
-9.3023195086E+00 -9.2843266251E+00 -9.2664032121E+00 -9.2485488683E+00
-9.2307631951E+00 -9.2130457970E+00 -9.1953962817E+00 -9.1778142599E+00
-9.1602993451E+00 -9.1428511538E+00 -9.1254693054E+00 -9.1081534224E+00
-9.0909031299E+00 -9.0737180560E+00 -9.0565978314E+00 -9.0395420899E+00
-9.0225504677E+00 -9.0056226040E+00 -8.9887581406E+00 -8.9719567219E+00
-8.9552179952E+00 -8.9385416102E+00 -8.9219272192E+00 -8.9053744771E+00
-8.8888830416E+00 -8.8724525727E+00 -8.8560827328E+00 -8.8397731870E+00