<UPF version="2.0.1"><PP_INFO>This pseudopotential file has been produced using the code
ONCVPSP (Optimized Norm-Conservinng Vanderbilt PSeudopotential)
scalar-relativistic version 3.3.0 08/16/2017 by D. R. Hamann
The code is available through a link at URL www.mat-simresearch.com.
Documentation with the package provides a full discription of the
input data below.
While it is not required under the terms of the GNU GPL, it is
suggested that you cite D. R. Hamann, Phys. Rev. B 88, 085117 (2013)
in any publication using these pseudopotentials.<PP_INPUTFILE>
# ATOM AND REFERENCE CONFIGURATION
# atsym z nc nv iexc psfile
Br 35.00 5 3 -116133 upf
#
# n l f energy (Ha)
1 0 2.00
2 0 2.00
2 1 6.00
3 0 2.00
3 1 6.00
3 2 10.00
4 0 2.00
4 1 5.00
#
# PSEUDOPOTENTIAL AND OPTIMIZATION
# lmax
2
#
# l, rc, ep, ncon, nbas, qcut
0 1.80000 -0.73991 4 8 5.80000
1 1.50000 -0.28868 4 8 6.60000
2 1.90000 -2.45164 4 8 8.60000
#
# LOCAL POTENTIAL
# lloc, lpopt, rc(5), dvloc0
4 5 1.50000 0.00000
#
# VANDERBILT-KLEINMAN-BYLANDER PROJECTORs
# l, nproj, debl
0 2 3.20000
1 2 4.00000
2 2 2.50000
#
# MODEL CORE CHARGE
# icmod, fcfact, rcfact
3 3.50000 1.50000
#
# LOG DERIVATIVE ANALYSIS
# epsh1, epsh2, depsh
-12.00 12.00 0.02
#
# OUTPUT GRID
# rlmax, drl
6.00 0.01
#
# TEST CONFIGURATIONS
# ncnf
0
# nvcnf
# n l f</PP_INPUTFILE></PP_INFO><PP_HEADER generated="Generated using ONCVPSP code by D. R. Hamann" author="anonymous" date="180301" comment="" element="Br" pseudo_type="NC" relativistic="scalar" is_ultrasoft="F" is_paw="F" is_coulomb="F" has_so="F" has_wfc="F" has_gipaw="F" core_correction="T" functional="PBESOL" z_valence="   17.00" total_psenergy="  -2.56082425195E+02" rho_cutoff="   1.09700000000E+01" l_max="2" l_local="-1" mesh_size="  1098" number_of_wfc="3" number_of_proj="6"/><PP_MESH><PP_R type="real" size="1098" columns="8">
0.0000 0.0100 0.0200 0.0300 0.0400 0.0500 0.0600 0.0700
0.0800 0.0900 0.1000 0.1100 0.1200 0.1300 0.1400 0.1500
0.1600 0.1700 0.1800 0.1900 0.2000 0.2100 0.2200 0.2300
0.2400 0.2500 0.2600 0.2700 0.2800 0.2900 0.3000 0.3100
0.3200 0.3300 0.3400 0.3500 0.3600 0.3700 0.3800 0.3900
0.4000 0.4100 0.4200 0.4300 0.4400 0.4500 0.4600 0.4700
0.4800 0.4900 0.5000 0.5100 0.5200 0.5300 0.5400 0.5500
0.5600 0.5700 0.5800 0.5900 0.6000 0.6100 0.6200 0.6300
0.6400 0.6500 0.6600 0.6700 0.6800 0.6900 0.7000 0.7100
0.7200 0.7300 0.7400 0.7500 0.7600 0.7700 0.7800 0.7900
0.8000 0.8100 0.8200 0.8300 0.8400 0.8500 0.8600 0.8700
0.8800 0.8900 0.9000 0.9100 0.9200 0.9300 0.9400 0.9500
0.9600 0.9700 0.9800 0.9900 1.0000 1.0100 1.0200 1.0300
1.0400 1.0500 1.0600 1.0700 1.0800 1.0900 1.1000 1.1100
1.1200 1.1300 1.1400 1.1500 1.1600 1.1700 1.1800 1.1900
1.2000 1.2100 1.2200 1.2300 1.2400 1.2500 1.2600 1.2700
1.2800 1.2900 1.3000 1.3100 1.3200 1.3300 1.3400 1.3500
1.3600 1.3700 1.3800 1.3900 1.4000 1.4100 1.4200 1.4300
1.4400 1.4500 1.4600 1.4700 1.4800 1.4900 1.5000 1.5100
1.5200 1.5300 1.5400 1.5500 1.5600 1.5700 1.5800 1.5900
1.6000 1.6100 1.6200 1.6300 1.6400 1.6500 1.6600 1.6700
1.6800 1.6900 1.7000 1.7100 1.7200 1.7300 1.7400 1.7500
1.7600 1.7700 1.7800 1.7900 1.8000 1.8100 1.8200 1.8300
1.8400 1.8500 1.8600 1.8700 1.8800 1.8900 1.9000 1.9100
1.9200 1.9300 1.9400 1.9500 1.9600 1.9700 1.9800 1.9900
2.0000 2.0100 2.0200 2.0300 2.0400 2.0500 2.0600 2.0700
2.0800 2.0900 2.1000 2.1100 2.1200 2.1300 2.1400 2.1500
2.1600 2.1700 2.1800 2.1900 2.2000 2.2100 2.2200 2.2300
2.2400 2.2500 2.2600 2.2700 2.2800 2.2900 2.3000 2.3100
2.3200 2.3300 2.3400 2.3500 2.3600 2.3700 2.3800 2.3900
2.4000 2.4100 2.4200 2.4300 2.4400 2.4500 2.4600 2.4700
2.4800 2.4900 2.5000 2.5100 2.5200 2.5300 2.5400 2.5500
2.5600 2.5700 2.5800 2.5900 2.6000 2.6100 2.6200 2.6300
2.6400 2.6500 2.6600 2.6700 2.6800 2.6900 2.7000 2.7100
2.7200 2.7300 2.7400 2.7500 2.7600 2.7700 2.7800 2.7900
2.8000 2.8100 2.8200 2.8300 2.8400 2.8500 2.8600 2.8700
2.8800 2.8900 2.9000 2.9100 2.9200 2.9300 2.9400 2.9500
2.9600 2.9700 2.9800 2.9900 3.0000 3.0100 3.0200 3.0300
3.0400 3.0500 3.0600 3.0700 3.0800 3.0900 3.1000 3.1100
3.1200 3.1300 3.1400 3.1500 3.1600 3.1700 3.1800 3.1900
3.2000 3.2100 3.2200 3.2300 3.2400 3.2500 3.2600 3.2700
3.2800 3.2900 3.3000 3.3100 3.3200 3.3300 3.3400 3.3500
3.3600 3.3700 3.3800 3.3900 3.4000 3.4100 3.4200 3.4300
3.4400 3.4500 3.4600 3.4700 3.4800 3.4900 3.5000 3.5100
3.5200 3.5300 3.5400 3.5500 3.5600 3.5700 3.5800 3.5900
3.6000 3.6100 3.6200 3.6300 3.6400 3.6500 3.6600 3.6700
3.6800 3.6900 3.7000 3.7100 3.7200 3.7300 3.7400 3.7500
3.7600 3.7700 3.7800 3.7900 3.8000 3.8100 3.8200 3.8300
3.8400 3.8500 3.8600 3.8700 3.8800 3.8900 3.9000 3.9100
3.9200 3.9300 3.9400 3.9500 3.9600 3.9700 3.9800 3.9900
4.0000 4.0100 4.0200 4.0300 4.0400 4.0500 4.0600 4.0700
4.0800 4.0900 4.1000 4.1100 4.1200 4.1300 4.1400 4.1500
4.1600 4.1700 4.1800 4.1900 4.2000 4.2100 4.2200 4.2300
4.2400 4.2500 4.2600 4.2700 4.2800 4.2900 4.3000 4.3100
4.3200 4.3300 4.3400 4.3500 4.3600 4.3700 4.3800 4.3900
4.4000 4.4100 4.4200 4.4300 4.4400 4.4500 4.4600 4.4700
4.4800 4.4900 4.5000 4.5100 4.5200 4.5300 4.5400 4.5500
4.5600 4.5700 4.5800 4.5900 4.6000 4.6100 4.6200 4.6300
4.6400 4.6500 4.6600 4.6700 4.6800 4.6900 4.7000 4.7100
4.7200 4.7300 4.7400 4.7500 4.7600 4.7700 4.7800 4.7900
4.8000 4.8100 4.8200 4.8300 4.8400 4.8500 4.8600 4.8700
4.8800 4.8900 4.9000 4.9100 4.9200 4.9300 4.9400 4.9500
4.9600 4.9700 4.9800 4.9900 5.0000 5.0100 5.0200 5.0300
5.0400 5.0500 5.0600 5.0700 5.0800 5.0900 5.1000 5.1100
5.1200 5.1300 5.1400 5.1500 5.1600 5.1700 5.1800 5.1900
5.2000 5.2100 5.2200 5.2300 5.2400 5.2500 5.2600 5.2700
5.2800 5.2900 5.3000 5.3100 5.3200 5.3300 5.3400 5.3500
5.3600 5.3700 5.3800 5.3900 5.4000 5.4100 5.4200 5.4300
5.4400 5.4500 5.4600 5.4700 5.4800 5.4900 5.5000 5.5100
5.5200 5.5300 5.5400 5.5500 5.5600 5.5700 5.5800 5.5900
5.6000 5.6100 5.6200 5.6300 5.6400 5.6500 5.6600 5.6700
5.6800 5.6900 5.7000 5.7100 5.7200 5.7300 5.7400 5.7500
5.7600 5.7700 5.7800 5.7900 5.8000 5.8100 5.8200 5.8300
5.8400 5.8500 5.8600 5.8700 5.8800 5.8900 5.9000 5.9100
5.9200 5.9300 5.9400 5.9500 5.9600 5.9700 5.9800 5.9900
6.0000 6.0100 6.0200 6.0300 6.0400 6.0500 6.0600 6.0700
6.0800 6.0900 6.1000 6.1100 6.1200 6.1300 6.1400 6.1500
6.1600 6.1700 6.1800 6.1900 6.2000 6.2100 6.2200 6.2300
6.2400 6.2500 6.2600 6.2700 6.2800 6.2900 6.3000 6.3100
6.3200 6.3300 6.3400 6.3500 6.3600 6.3700 6.3800 6.3900
6.4000 6.4100 6.4200 6.4300 6.4400 6.4500 6.4600 6.4700
6.4800 6.4900 6.5000 6.5100 6.5200 6.5300 6.5400 6.5500
6.5600 6.5700 6.5800 6.5900 6.6000 6.6100 6.6200 6.6300
6.6400 6.6500 6.6600 6.6700 6.6800 6.6900 6.7000 6.7100
6.7200 6.7300 6.7400 6.7500 6.7600 6.7700 6.7800 6.7900
6.8000 6.8100 6.8200 6.8300 6.8400 6.8500 6.8600 6.8700
6.8800 6.8900 6.9000 6.9100 6.9200 6.9300 6.9400 6.9500
6.9600 6.9700 6.9800 6.9900 7.0000 7.0100 7.0200 7.0300
7.0400 7.0500 7.0600 7.0700 7.0800 7.0900 7.1000 7.1100
7.1200 7.1300 7.1400 7.1500 7.1600 7.1700 7.1800 7.1900
7.2000 7.2100 7.2200 7.2300 7.2400 7.2500 7.2600 7.2700
7.2800 7.2900 7.3000 7.3100 7.3200 7.3300 7.3400 7.3500
7.3600 7.3700 7.3800 7.3900 7.4000 7.4100 7.4200 7.4300
7.4400 7.4500 7.4600 7.4700 7.4800 7.4900 7.5000 7.5100
7.5200 7.5300 7.5400 7.5500 7.5600 7.5700 7.5800 7.5900
7.6000 7.6100 7.6200 7.6300 7.6400 7.6500 7.6600 7.6700
7.6800 7.6900 7.7000 7.7100 7.7200 7.7300 7.7400 7.7500
7.7600 7.7700 7.7800 7.7900 7.8000 7.8100 7.8200 7.8300
7.8400 7.8500 7.8600 7.8700 7.8800 7.8900 7.9000 7.9100
7.9200 7.9300 7.9400 7.9500 7.9600 7.9700 7.9800 7.9900
8.0000 8.0100 8.0200 8.0300 8.0400 8.0500 8.0600 8.0700
8.0800 8.0900 8.1000 8.1100 8.1200 8.1300 8.1400 8.1500
8.1600 8.1700 8.1800 8.1900 8.2000 8.2100 8.2200 8.2300
8.2400 8.2500 8.2600 8.2700 8.2800 8.2900 8.3000 8.3100
8.3200 8.3300 8.3400 8.3500 8.3600 8.3700 8.3800 8.3900
8.4000 8.4100 8.4200 8.4300 8.4400 8.4500 8.4600 8.4700
8.4800 8.4900 8.5000 8.5100 8.5200 8.5300 8.5400 8.5500
8.5600 8.5700 8.5800 8.5900 8.6000 8.6100 8.6200 8.6300
8.6400 8.6500 8.6600 8.6700 8.6800 8.6900 8.7000 8.7100
8.7200 8.7300 8.7400 8.7500 8.7600 8.7700 8.7800 8.7900
8.8000 8.8100 8.8200 8.8300 8.8400 8.8500 8.8600 8.8700
8.8800 8.8900 8.9000 8.9100 8.9200 8.9300 8.9400 8.9500
8.9600 8.9700 8.9800 8.9900 9.0000 9.0100 9.0200 9.0300
9.0400 9.0500 9.0600 9.0700 9.0800 9.0900 9.1000 9.1100
9.1200 9.1300 9.1400 9.1500 9.1600 9.1700 9.1800 9.1900
9.2000 9.2100 9.2200 9.2300 9.2400 9.2500 9.2600 9.2700
9.2800 9.2900 9.3000 9.3100 9.3200 9.3300 9.3400 9.3500
9.3600 9.3700 9.3800 9.3900 9.4000 9.4100 9.4200 9.4300
9.4400 9.4500 9.4600 9.4700 9.4800 9.4900 9.5000 9.5100
9.5200 9.5300 9.5400 9.5500 9.5600 9.5700 9.5800 9.5900
9.6000 9.6100 9.6200 9.6300 9.6400 9.6500 9.6600 9.6700
9.6800 9.6900 9.7000 9.7100 9.7200 9.7300 9.7400 9.7500
9.7600 9.7700 9.7800 9.7900 9.8000 9.8100 9.8200 9.8300
9.8400 9.8500 9.8600 9.8700 9.8800 9.8900 9.9000 9.9100
9.9200 9.9300 9.9400 9.9500 9.9600 9.9700 9.9800 9.9900
10.0000 10.0100 10.0200 10.0300 10.0400 10.0500 10.0600 10.0700
10.0800 10.0900 10.1000 10.1100 10.1200 10.1300 10.1400 10.1500
10.1600 10.1700 10.1800 10.1900 10.2000 10.2100 10.2200 10.2300
10.2400 10.2500 10.2600 10.2700 10.2800 10.2900 10.3000 10.3100
10.3200 10.3300 10.3400 10.3500 10.3600 10.3700 10.3800 10.3900
10.4000 10.4100 10.4200 10.4300 10.4400 10.4500 10.4600 10.4700
10.4800 10.4900 10.5000 10.5100 10.5200 10.5300 10.5400 10.5500
10.5600 10.5700 10.5800 10.5900 10.6000 10.6100 10.6200 10.6300
10.6400 10.6500 10.6600 10.6700 10.6800 10.6900 10.7000 10.7100
10.7200 10.7300 10.7400 10.7500 10.7600 10.7700 10.7800 10.7900
10.8000 10.8100 10.8200 10.8300 10.8400 10.8500 10.8600 10.8700
10.8800 10.8900 10.9000 10.9100 10.9200 10.9300 10.9400 10.9500
10.9600 10.9700</PP_R><PP_RAB type="real" size="1098" columns="8">
0.0100 0.0100 0.0100 0.0100 0.0100 0.0100 0.0100 0.0100
0.0100 0.0100 0.0100 0.0100 0.0100 0.0100 0.0100 0.0100
0.0100 0.0100 0.0100 0.0100 0.0100 0.0100 0.0100 0.0100
0.0100 0.0100 0.0100 0.0100 0.0100 0.0100 0.0100 0.0100
0.0100 0.0100 0.0100 0.0100 0.0100 0.0100 0.0100 0.0100
0.0100 0.0100 0.0100 0.0100 0.0100 0.0100 0.0100 0.0100
0.0100 0.0100 0.0100 0.0100 0.0100 0.0100 0.0100 0.0100
0.0100 0.0100 0.0100 0.0100 0.0100 0.0100 0.0100 0.0100
0.0100 0.0100 0.0100 0.0100 0.0100 0.0100 0.0100 0.0100
0.0100 0.0100 0.0100 0.0100 0.0100 0.0100 0.0100 0.0100
0.0100 0.0100 0.0100 0.0100 0.0100 0.0100 0.0100 0.0100
0.0100 0.0100 0.0100 0.0100 0.0100 0.0100 0.0100 0.0100
0.0100 0.0100 0.0100 0.0100 0.0100 0.0100 0.0100 0.0100
0.0100 0.0100 0.0100 0.0100 0.0100 0.0100 0.0100 0.0100
0.0100 0.0100 0.0100 0.0100 0.0100 0.0100 0.0100 0.0100
0.0100 0.0100 0.0100 0.0100 0.0100 0.0100 0.0100 0.0100
0.0100 0.0100 0.0100 0.0100 0.0100 0.0100 0.0100 0.0100
0.0100 0.0100 0.0100 0.0100 0.0100 0.0100 0.0100 0.0100
0.0100 0.0100 0.0100 0.0100 0.0100 0.0100 0.0100 0.0100
0.0100 0.0100 0.0100 0.0100 0.0100 0.0100 0.0100 0.0100
0.0100 0.0100 0.0100 0.0100 0.0100 0.0100 0.0100 0.0100
0.0100 0.0100 0.0100 0.0100 0.0100 0.0100 0.0100 0.0100
0.0100 0.0100 0.0100 0.0100 0.0100 0.0100 0.0100 0.0100
0.0100 0.0100 0.0100 0.0100 0.0100 0.0100 0.0100 0.0100
0.0100 0.0100 0.0100 0.0100 0.0100 0.0100 0.0100 0.0100
0.0100 0.0100 0.0100 0.0100 0.0100 0.0100 0.0100 0.0100
0.0100 0.0100 0.0100 0.0100 0.0100 0.0100 0.0100 0.0100
0.0100 0.0100 0.0100 0.0100 0.0100 0.0100 0.0100 0.0100
0.0100 0.0100 0.0100 0.0100 0.0100 0.0100 0.0100 0.0100
0.0100 0.0100 0.0100 0.0100 0.0100 0.0100 0.0100 0.0100
0.0100 0.0100 0.0100 0.0100 0.0100 0.0100 0.0100 0.0100
0.0100 0.0100 0.0100 0.0100 0.0100 0.0100 0.0100 0.0100
0.0100 0.0100 0.0100 0.0100 0.0100 0.0100 0.0100 0.0100
0.0100 0.0100 0.0100 0.0100 0.0100 0.0100 0.0100 0.0100
0.0100 0.0100 0.0100 0.0100 0.0100 0.0100 0.0100 0.0100
0.0100 0.0100 0.0100 0.0100 0.0100 0.0100 0.0100 0.0100
0.0100 0.0100 0.0100 0.0100 0.0100 0.0100 0.0100 0.0100
0.0100 0.0100 0.0100 0.0100 0.0100 0.0100 0.0100 0.0100
0.0100 0.0100 0.0100 0.0100 0.0100 0.0100 0.0100 0.0100
0.0100 0.0100 0.0100 0.0100 0.0100 0.0100 0.0100 0.0100
0.0100 0.0100 0.0100 0.0100 0.0100 0.0100 0.0100 0.0100
0.0100 0.0100 0.0100 0.0100 0.0100 0.0100 0.0100 0.0100
0.0100 0.0100 0.0100 0.0100 0.0100 0.0100 0.0100 0.0100
0.0100 0.0100 0.0100 0.0100 0.0100 0.0100 0.0100 0.0100
0.0100 0.0100 0.0100 0.0100 0.0100 0.0100 0.0100 0.0100
0.0100 0.0100 0.0100 0.0100 0.0100 0.0100 0.0100 0.0100
0.0100 0.0100 0.0100 0.0100 0.0100 0.0100 0.0100 0.0100
0.0100 0.0100 0.0100 0.0100 0.0100 0.0100 0.0100 0.0100
0.0100 0.0100 0.0100 0.0100 0.0100 0.0100 0.0100 0.0100
0.0100 0.0100 0.0100 0.0100 0.0100 0.0100 0.0100 0.0100
0.0100 0.0100 0.0100 0.0100 0.0100 0.0100 0.0100 0.0100
0.0100 0.0100 0.0100 0.0100 0.0100 0.0100 0.0100 0.0100
0.0100 0.0100 0.0100 0.0100 0.0100 0.0100 0.0100 0.0100
0.0100 0.0100 0.0100 0.0100 0.0100 0.0100 0.0100 0.0100
0.0100 0.0100 0.0100 0.0100 0.0100 0.0100 0.0100 0.0100
0.0100 0.0100 0.0100 0.0100 0.0100 0.0100 0.0100 0.0100
0.0100 0.0100 0.0100 0.0100 0.0100 0.0100 0.0100 0.0100
0.0100 0.0100 0.0100 0.0100 0.0100 0.0100 0.0100 0.0100
0.0100 0.0100 0.0100 0.0100 0.0100 0.0100 0.0100 0.0100
0.0100 0.0100 0.0100 0.0100 0.0100 0.0100 0.0100 0.0100
0.0100 0.0100 0.0100 0.0100 0.0100 0.0100 0.0100 0.0100
0.0100 0.0100 0.0100 0.0100 0.0100 0.0100 0.0100 0.0100
0.0100 0.0100 0.0100 0.0100 0.0100 0.0100 0.0100 0.0100
0.0100 0.0100 0.0100 0.0100 0.0100 0.0100 0.0100 0.0100
0.0100 0.0100 0.0100 0.0100 0.0100 0.0100 0.0100 0.0100
0.0100 0.0100 0.0100 0.0100 0.0100 0.0100 0.0100 0.0100
0.0100 0.0100 0.0100 0.0100 0.0100 0.0100 0.0100 0.0100
0.0100 0.0100 0.0100 0.0100 0.0100 0.0100 0.0100 0.0100
0.0100 0.0100 0.0100 0.0100 0.0100 0.0100 0.0100 0.0100
0.0100 0.0100 0.0100 0.0100 0.0100 0.0100 0.0100 0.0100
0.0100 0.0100 0.0100 0.0100 0.0100 0.0100 0.0100 0.0100
0.0100 0.0100 0.0100 0.0100 0.0100 0.0100 0.0100 0.0100
0.0100 0.0100 0.0100 0.0100 0.0100 0.0100 0.0100 0.0100
0.0100 0.0100 0.0100 0.0100 0.0100 0.0100 0.0100 0.0100
0.0100 0.0100 0.0100 0.0100 0.0100 0.0100 0.0100 0.0100
0.0100 0.0100 0.0100 0.0100 0.0100 0.0100 0.0100 0.0100
0.0100 0.0100 0.0100 0.0100 0.0100 0.0100 0.0100 0.0100
0.0100 0.0100 0.0100 0.0100 0.0100 0.0100 0.0100 0.0100
0.0100 0.0100 0.0100 0.0100 0.0100 0.0100 0.0100 0.0100
0.0100 0.0100 0.0100 0.0100 0.0100 0.0100 0.0100 0.0100
0.0100 0.0100 0.0100 0.0100 0.0100 0.0100 0.0100 0.0100
0.0100 0.0100 0.0100 0.0100 0.0100 0.0100 0.0100 0.0100
0.0100 0.0100 0.0100 0.0100 0.0100 0.0100 0.0100 0.0100
0.0100 0.0100 0.0100 0.0100 0.0100 0.0100 0.0100 0.0100
0.0100 0.0100 0.0100 0.0100 0.0100 0.0100 0.0100 0.0100
0.0100 0.0100 0.0100 0.0100 0.0100 0.0100 0.0100 0.0100
0.0100 0.0100 0.0100 0.0100 0.0100 0.0100 0.0100 0.0100
0.0100 0.0100 0.0100 0.0100 0.0100 0.0100 0.0100 0.0100
0.0100 0.0100 0.0100 0.0100 0.0100 0.0100 0.0100 0.0100
0.0100 0.0100 0.0100 0.0100 0.0100 0.0100 0.0100 0.0100
0.0100 0.0100 0.0100 0.0100 0.0100 0.0100 0.0100 0.0100
0.0100 0.0100 0.0100 0.0100 0.0100 0.0100 0.0100 0.0100
0.0100 0.0100 0.0100 0.0100 0.0100 0.0100 0.0100 0.0100
0.0100 0.0100 0.0100 0.0100 0.0100 0.0100 0.0100 0.0100
0.0100 0.0100 0.0100 0.0100 0.0100 0.0100 0.0100 0.0100
0.0100 0.0100 0.0100 0.0100 0.0100 0.0100 0.0100 0.0100
0.0100 0.0100 0.0100 0.0100 0.0100 0.0100 0.0100 0.0100
0.0100 0.0100 0.0100 0.0100 0.0100 0.0100 0.0100 0.0100
0.0100 0.0100 0.0100 0.0100 0.0100 0.0100 0.0100 0.0100
0.0100 0.0100 0.0100 0.0100 0.0100 0.0100 0.0100 0.0100
0.0100 0.0100 0.0100 0.0100 0.0100 0.0100 0.0100 0.0100
0.0100 0.0100 0.0100 0.0100 0.0100 0.0100 0.0100 0.0100
0.0100 0.0100 0.0100 0.0100 0.0100 0.0100 0.0100 0.0100
0.0100 0.0100 0.0100 0.0100 0.0100 0.0100 0.0100 0.0100
0.0100 0.0100 0.0100 0.0100 0.0100 0.0100 0.0100 0.0100
0.0100 0.0100 0.0100 0.0100 0.0100 0.0100 0.0100 0.0100
0.0100 0.0100 0.0100 0.0100 0.0100 0.0100 0.0100 0.0100
0.0100 0.0100 0.0100 0.0100 0.0100 0.0100 0.0100 0.0100
0.0100 0.0100 0.0100 0.0100 0.0100 0.0100 0.0100 0.0100
0.0100 0.0100 0.0100 0.0100 0.0100 0.0100 0.0100 0.0100
0.0100 0.0100 0.0100 0.0100 0.0100 0.0100 0.0100 0.0100
0.0100 0.0100 0.0100 0.0100 0.0100 0.0100 0.0100 0.0100
0.0100 0.0100 0.0100 0.0100 0.0100 0.0100 0.0100 0.0100
0.0100 0.0100 0.0100 0.0100 0.0100 0.0100 0.0100 0.0100
0.0100 0.0100 0.0100 0.0100 0.0100 0.0100 0.0100 0.0100
0.0100 0.0100 0.0100 0.0100 0.0100 0.0100 0.0100 0.0100
0.0100 0.0100 0.0100 0.0100 0.0100 0.0100 0.0100 0.0100
0.0100 0.0100 0.0100 0.0100 0.0100 0.0100 0.0100 0.0100
0.0100 0.0100 0.0100 0.0100 0.0100 0.0100 0.0100 0.0100
0.0100 0.0100 0.0100 0.0100 0.0100 0.0100 0.0100 0.0100
0.0100 0.0100 0.0100 0.0100 0.0100 0.0100 0.0100 0.0100
0.0100 0.0100 0.0100 0.0100 0.0100 0.0100 0.0100 0.0100
0.0100 0.0100 0.0100 0.0100 0.0100 0.0100 0.0100 0.0100
0.0100 0.0100 0.0100 0.0100 0.0100 0.0100 0.0100 0.0100
0.0100 0.0100 0.0100 0.0100 0.0100 0.0100 0.0100 0.0100
0.0100 0.0100 0.0100 0.0100 0.0100 0.0100 0.0100 0.0100
0.0100 0.0100 0.0100 0.0100 0.0100 0.0100 0.0100 0.0100
0.0100 0.0100 0.0100 0.0100 0.0100 0.0100 0.0100 0.0100
0.0100 0.0100 0.0100 0.0100 0.0100 0.0100 0.0100 0.0100
0.0100 0.0100 0.0100 0.0100 0.0100 0.0100 0.0100 0.0100
0.0100 0.0100 0.0100 0.0100 0.0100 0.0100 0.0100 0.0100
0.0100 0.0100 0.0100 0.0100 0.0100 0.0100 0.0100 0.0100
0.0100 0.0100 0.0100 0.0100 0.0100 0.0100 0.0100 0.0100
0.0100 0.0100 0.0100 0.0100 0.0100 0.0100 0.0100 0.0100
0.0100 0.0100 0.0100 0.0100 0.0100 0.0100 0.0100 0.0100
0.0100 0.0100 0.0100 0.0100 0.0100 0.0100 0.0100 0.0100
0.0100 0.0100 0.0100 0.0100 0.0100 0.0100 0.0100 0.0100
0.0100 0.0100</PP_RAB></PP_MESH><PP_LOCAL type="real" size="1098" columns="4">
-4.3141566588E+01 -4.3141012716E+01 -4.3139350805E+01 -4.3136579988E+01
-4.3132698688E+01 -4.3127704445E+01 -4.3121593667E+01 -4.3114361334E+01
-4.3106000645E+01 -4.3096502637E+01 -4.3085855774E+01 -4.3074045531E+01
-4.3061053972E+01 -4.3046859343E+01 -4.3031435697E+01 -4.3014752544E+01
-4.2996774565E+01 -4.2977461369E+01 -4.2956767327E+01 -4.2934641472E+01
-4.2911027487E+01 -4.2885863766E+01 -4.2859083569E+01 -4.2830615255E+01
-4.2800382607E+01 -4.2768305228E+01 -4.2734299010E+01 -4.2698276672E+01
-4.2660148340E+01 -4.2619822172E+01 -4.2577204995E+01 -4.2532202952E+01
-4.2484722138E+01 -4.2434669197E+01 -4.2381951886E+01 -4.2326479571E+01
-4.2268163669E+01 -4.2206918012E+01 -4.2142659143E+01 -4.2075306556E+01
-4.2004782869E+01 -4.1931013958E+01 -4.1853929067E+01 -4.1773460885E+01
-4.1689545634E+01 -4.1602123152E+01 -4.1511136995E+01 -4.1416534556E+01
-4.1318267204E+01 -4.1216290444E+01 -4.1110564101E+01 -4.1001052519E+01
-4.0887724771E+01 -4.0770554897E+01 -4.0649522143E+01 -4.0524611221E+01
-4.0395812585E+01 -4.0263122715E+01 -4.0126544425E+01 -3.9986087169E+01
-3.9841767371E+01 -3.9693608746E+01 -3.9541642615E+01 -3.9385908212E+01
-3.9226452951E+01 -3.9063332656E+01 -3.8896611735E+01 -3.8726363281E+01
-3.8552669096E+01 -3.8375619617E+01 -3.8195313748E+01 -3.8011858595E+01
-3.7825369092E+01 -3.7635967537E+01 -3.7443783041E+01 -3.7248950898E+01
-3.7051611891E+01 -3.6851911560E+01 -3.6649999424E+01 -3.6446028202E+01
-3.6240153024E+01 -3.6032530656E+01 -3.5823318753E+01 -3.5612675136E+01
-3.5400757116E+01 -3.5187720855E+01 -3.4973720771E+01 -3.4758908987E+01
-3.4543434819E+01 -3.4327444302E+01 -3.4111079746E+01 -3.3894479323E+01
-3.3677776673E+01 -3.3461100527E+01 -3.3244574342E+01 -3.3028315953E+01
-3.2812437224E+01 -3.2597043716E+01 -3.2382234358E+01 -3.2168101145E+01
-3.1954728847E+01 -3.1742194760E+01 -3.1530568505E+01 -3.1319911883E+01
-3.1110278817E+01 -3.0901715394E+01 -3.0694260022E+01 -3.0487943729E+01
-3.0282790609E+01 -3.0078818426E+01 -2.9876039379E+01 -2.9674461007E+01
-2.9474087221E+01 -2.9274919416E+01 -2.9076957613E+01 -2.8880201575E+01
-2.8684651815E+01 -2.8490310410E+01 -2.8297181559E+01 -2.8105271784E+01
-2.7914589741E+01 -2.7725145570E+01 -2.7536949804E+01 -2.7350011851E+01
-2.7164338143E+01 -2.6979930055E+01 -2.6796781824E+01 -2.6614878653E+01
-2.6434195295E+01 -2.6254695396E+01 -2.6076331788E+01 -2.5899048027E+01
-2.5722781162E+01 -2.5547465689E+01 -2.5373038561E+01 -2.5199444719E+01
-2.5026642805E+01 -2.4854610275E+01 -2.4683347581E+01 -2.4512880620E+01
-2.4343261379E+01 -2.4174566555E+01 -2.4006894183E+01 -2.3840358849E+01
-2.3675085664E+01 -2.3511203961E+01 -2.3348840873E+01 -2.3188116020E+01
-2.3029137076E+01 -2.2871995750E+01 -2.2716765054E+01 -2.2563495247E+01
-2.2412213955E+01 -2.2262930001E+01 -2.2115638473E+01 -2.1970329137E+01
-2.1826986769E+01 -2.1685590985E+01 -2.1546116017E+01 -2.1408529352E+01
-2.1272795037E+01 -2.1138875622E+01 -2.1006732787E+01 -2.0876328285E+01
-2.0747623950E+01 -2.0620581908E+01 -2.0495165121E+01 -2.0371337574E+01
-2.0249064293E+01 -2.0128311397E+01 -2.0009046139E+01 -1.9891236900E+01
-1.9774853184E+01 -1.9659865578E+01 -1.9546245737E+01 -1.9433966344E+01
-1.9323001000E+01 -1.9213324205E+01 -1.9104911439E+01 -1.8997739165E+01
-1.8891785222E+01 -1.8787029175E+01 -1.8683451781E+01 -1.8581034987E+01
-1.8479761281E+01 -1.8379612592E+01 -1.8280570710E+01 -1.8182617658E+01
-1.8085735565E+01 -1.7989906864E+01 -1.7895114239E+01 -1.7801339271E+01
-1.7708561081E+01 -1.7616758271E+01 -1.7525908890E+01 -1.7435991923E+01
-1.7346989712E+01 -1.7258887979E+01 -1.7171674269E+01 -1.7085337149E+01
-1.6999865874E+01 -1.6915248325E+01 -1.6831471997E+01 -1.6748524560E+01
-1.6666394103E+01 -1.6585068832E+01 -1.6504537376E+01 -1.6424788573E+01
-1.6345811280E+01 -1.6267594393E+01 -1.6190126946E+01 -1.6113398191E+01
-1.6037397512E+01 -1.5962114429E+01 -1.5887538599E+01 -1.5813659833E+01
-1.5740468092E+01 -1.5667953492E+01 -1.5596106307E+01 -1.5524916974E+01
-1.5454376091E+01 -1.5384474426E+01 -1.5315202916E+01 -1.5246552672E+01
-1.5178514977E+01 -1.5111081291E+01 -1.5044243252E+01 -1.4977992672E+01
-1.4912321542E+01 -1.4847222028E+01 -1.4782686470E+01 -1.4718707380E+01
-1.4655277442E+01 -1.4592389502E+01 -1.4530036572E+01 -1.4468211821E+01
-1.4406908572E+01 -1.4346120296E+01 -1.4285840608E+01 -1.4226063259E+01
-1.4166782132E+01 -1.4107991235E+01 -1.4049684695E+01 -1.3991856753E+01
-1.3934501755E+01 -1.3877614147E+01 -1.3821188472E+01 -1.3765219359E+01
-1.3709701520E+01 -1.3654629747E+01 -1.3599998902E+01 -1.3545803917E+01
-1.3492039788E+01 -1.3438701571E+01 -1.3385784381E+01 -1.3333283386E+01
-1.3281193805E+01 -1.3229510910E+01 -1.3178230021E+01 -1.3127346504E+01
-1.3076855776E+01 -1.3026753298E+01 -1.2977034580E+01 -1.2927695180E+01
-1.2878730705E+01 -1.2830136809E+01 -1.2781909200E+01 -1.2734043638E+01
-1.2686535935E+01 -1.2639381956E+01 -1.2592577631E+01 -1.2546118946E+01
-1.2500001956E+01 -1.2454222756E+01 -1.2408777475E+01 -1.2363662320E+01
-1.2318873570E+01 -1.2274407719E+01 -1.2230261271E+01 -1.2186430771E+01
-1.2142912722E+01 -1.2099703618E+01 -1.2056800048E+01 -1.2014198389E+01
-1.1971894950E+01 -1.1929886229E+01 -1.1888168897E+01 -1.1846740502E+01
-1.1805598626E+01 -1.1764741016E+01 -1.1724165520E+01 -1.1683869950E+01
-1.1643852083E+01 -1.1604109421E+01 -1.1564638689E+01 -1.1525436685E+01
-1.1486499974E+01 -1.1447825629E+01 -1.1409410786E+01 -1.1371252654E+01
-1.1333348580E+01 -1.1295696121E+01 -1.1258292888E+01 -1.1221136626E+01
-1.1184224912E+01 -1.1147555299E+01 -1.1111125384E+01 -1.1074932747E+01
-1.1038975118E+01 -1.1003250216E+01 -1.0967755796E+01 -1.0932489640E+01
-1.0897449547E+01 -1.0862633352E+01 -1.0828038915E+01 -1.0793664124E+01
-1.0759506895E+01 -1.0725565167E+01 -1.0691836908E+01 -1.0658320111E+01
-1.0625012793E+01 -1.0591912997E+01 -1.0559018789E+01 -1.0526328260E+01
-1.0493839524E+01 -1.0461550718E+01 -1.0429460002E+01 -1.0397565559E+01
-1.0365865594E+01 -1.0334358334E+01 -1.0303042027E+01 -1.0271914942E+01
-1.0240975369E+01 -1.0210221619E+01 -1.0179652023E+01 -1.0149264931E+01
-1.0119058715E+01 -1.0089031765E+01 -1.0059182488E+01 -1.0029509313E+01
-1.0000010687E+01 -9.9706850721E+00 -9.9415309523E+00 -9.9125468273E+00
-9.8837312146E+00 -9.8550826488E+00 -9.8265996816E+00 -9.7982808813E+00
-9.7701248327E+00 -9.7421301368E+00 -9.7142954105E+00 -9.6866192866E+00
-9.6591004134E+00 -9.6317374545E+00 -9.6045290885E+00 -9.5774740092E+00
-9.5505709247E+00 -9.5238185577E+00 -9.4972156454E+00 -9.4707609387E+00
-9.4444532027E+00 -9.4182912159E+00 -9.3922737706E+00 -9.3663996721E+00
-9.3406677391E+00 -9.3150768030E+00 -9.2896257082E+00 -9.2643133115E+00
-9.2391384824E+00 -9.2141001022E+00 -9.1891970648E+00 -9.1644282757E+00
-9.1397926522E+00 -9.1152891234E+00 -9.0909166296E+00 -9.0666741227E+00
-9.0425605653E+00 -9.0185749316E+00 -8.9947162061E+00 -8.9709833843E+00
-8.9473754724E+00 -8.9238914867E+00 -8.9005304540E+00 -8.8772914112E+00
-8.8541734053E+00 -8.8311754933E+00 -8.8082967416E+00 -8.7855362266E+00
-8.7628930341E+00 -8.7403662593E+00 -8.7179550067E+00 -8.6956583900E+00
-8.6734755318E+00 -8.6514055637E+00 -8.6294476263E+00 -8.6076008686E+00
-8.5858644484E+00 -8.5642375318E+00 -8.5427192936E+00 -8.5213089166E+00
-8.5000055918E+00 -8.4788085184E+00 -8.4577169034E+00 -8.4367299618E+00
-8.4158469163E+00 -8.3950669973E+00 -8.3743894429E+00 -8.3538134985E+00
-8.3333384169E+00 -8.3129634584E+00 -8.2926878904E+00 -8.2725109873E+00
-8.2524320308E+00 -8.2324503094E+00 -8.2125651185E+00 -8.1927757602E+00
-8.1730815436E+00 -8.1534817840E+00 -8.1339758037E+00 -8.1145629311E+00
-8.0952425013E+00 -8.0760138554E+00 -8.0568763410E+00 -8.0378293117E+00
-8.0188721274E+00 -8.0000041539E+00 -7.9812247629E+00 -7.9625333320E+00
-7.9439292448E+00 -7.9254118903E+00 -7.9069806636E+00 -7.8886349651E+00
-7.8703742008E+00 -7.8521977824E+00 -7.8341051268E+00 -7.8160956563E+00
-7.7981687985E+00 -7.7803239863E+00 -7.7625606577E+00 -7.7448782560E+00
-7.7272762293E+00 -7.7097540309E+00 -7.6923111189E+00 -7.6749469565E+00
-7.6576610114E+00 -7.6404527565E+00 -7.6233216691E+00 -7.6062672314E+00
-7.5892889300E+00 -7.5723862563E+00 -7.5555587060E+00 -7.5388057795E+00
-7.5221269814E+00 -7.5055218209E+00 -7.4889898113E+00 -7.4725304703E+00
-7.4561433199E+00 -7.4398278861E+00 -7.4235836992E+00 -7.4074102935E+00
-7.3913072074E+00 -7.3752739833E+00 -7.3593101675E+00 -7.3434153103E+00
-7.3275889658E+00 -7.3118306920E+00 -7.2961400507E+00 -7.2805166074E+00
-7.2649599314E+00 -7.2494695956E+00 -7.2340451764E+00 -7.2186862541E+00
-7.2033924124E+00 -7.1881632385E+00 -7.1729983230E+00 -7.1578972602E+00
-7.1428596476E+00 -7.1278850861E+00 -7.1129731800E+00 -7.0981235370E+00
-7.0833357678E+00 -7.0686094865E+00 -7.0539443105E+00 -7.0393398601E+00
-7.0247957591E+00 -7.0103116340E+00 -6.9958871147E+00 -6.9815218340E+00
-6.9672154276E+00 -6.9529675345E+00 -6.9387777962E+00 -6.9246458577E+00
-6.9105713663E+00 -6.8965539724E+00 -6.8825933295E+00 -6.8686890934E+00
-6.8548409230E+00 -6.8410484800E+00 -6.8273114285E+00 -6.8136294356E+00
-6.8000021708E+00 -6.7864293066E+00 -6.7729105177E+00 -6.7594454817E+00
-6.7460338785E+00 -6.7326753908E+00 -6.7193697037E+00 -6.7061165047E+00
-6.6929154838E+00 -6.6797663335E+00 -6.6666687487E+00 -6.6536224266E+00
-6.6406270669E+00 -6.6276823715E+00 -6.6147880447E+00 -6.6019437931E+00
-6.5891493256E+00 -6.5764043533E+00 -6.5637085895E+00 -6.5510617498E+00
-6.5384635519E+00 -6.5259137157E+00 -6.5134119633E+00 -6.5009580189E+00
-6.4885516087E+00 -6.4761924612E+00 -6.4638803067E+00 -6.4516148777E+00
-6.4393959089E+00 -6.4272231365E+00 -6.4150962993E+00 -6.4030151376E+00
-6.3909793939E+00 -6.3789888125E+00 -6.3670431397E+00 -6.3551421238E+00
-6.3432855147E+00 -6.3314730643E+00 -6.3197045264E+00 -6.3079796567E+00
-6.2962982124E+00 -6.2846599528E+00 -6.2730646389E+00 -6.2615120334E+00
-6.2500019007E+00 -6.2385340071E+00 -6.2271081204E+00 -6.2157240103E+00
-6.2043814481E+00 -6.1930802068E+00 -6.1818200608E+00 -6.1706007866E+00
-6.1594221620E+00 -6.1482839663E+00 -6.1371859808E+00 -6.1261279881E+00
-6.1151097723E+00 -6.1041311192E+00 -6.0931918161E+00 -6.0822916519E+00
-6.0714304168E+00 -6.0606079028E+00 -6.0498239030E+00 -6.0390782122E+00
-6.0283706267E+00 -6.0177009442E+00 -6.0070689638E+00 -5.9964744859E+00
-5.9859173125E+00 -5.9753972469E+00 -5.9649140938E+00 -5.9544676592E+00
-5.9440577506E+00 -5.9336841768E+00 -5.9233467478E+00 -5.9130452751E+00
-5.9027795713E+00 -5.8925494506E+00 -5.8823547281E+00 -5.8721952206E+00
-5.8620707458E+00 -5.8519811229E+00 -5.8419261723E+00 -5.8319057154E+00
-5.8219195751E+00 -5.8119675754E+00 -5.8020495416E+00 -5.7921653000E+00
-5.7823146783E+00 -5.7724975052E+00 -5.7627136106E+00 -5.7529628255E+00
-5.7432449823E+00 -5.7335599143E+00 -5.7239074558E+00 -5.7142874426E+00
-5.7046997112E+00 -5.6951440996E+00 -5.6856204464E+00 -5.6761285918E+00
-5.6666683766E+00 -5.6572396429E+00 -5.6478422339E+00 -5.6384759937E+00
-5.6291407676E+00 -5.6198364016E+00 -5.6105627431E+00 -5.6013196403E+00
-5.5921069423E+00 -5.5829244995E+00 -5.5737721631E+00 -5.5646497851E+00
-5.5555572188E+00 -5.5464943182E+00 -5.5374609385E+00 -5.5284569356E+00
-5.5194821664E+00 -5.5105364888E+00 -5.5016197616E+00 -5.4927318444E+00
-5.4838725979E+00 -5.4750418836E+00 -5.4662395638E+00 -5.4574655018E+00
-5.4487195618E+00 -5.4400016088E+00 -5.4313115086E+00 -5.4226491279E+00
-5.4140143345E+00 -5.4054069966E+00 -5.3968269836E+00 -5.3882741655E+00
-5.3797484133E+00 -5.3712495986E+00 -5.3627775941E+00 -5.3543322730E+00
-5.3459135095E+00 -5.3375211784E+00 -5.3291551556E+00 -5.3208153175E+00
-5.3125015414E+00 -5.3042137052E+00 -5.2959516878E+00 -5.2877153688E+00
-5.2795046283E+00 -5.2713193475E+00 -5.2631594080E+00 -5.2550246925E+00
-5.2469150840E+00 -5.2388304667E+00 -5.2307707250E+00 -5.2227357445E+00
-5.2147254110E+00 -5.2067396115E+00 -5.1987782334E+00 -5.1908411648E+00
-5.1829282946E+00 -5.1750395122E+00 -5.1671747079E+00 -5.1593337724E+00
-5.1515165973E+00 -5.1437230748E+00 -5.1359530976E+00 -5.1282065593E+00
-5.1204833538E+00 -5.1127833761E+00 -5.1051065214E+00 -5.0974526857E+00
-5.0898217656E+00 -5.0822136585E+00 -5.0746282621E+00 -5.0670654749E+00
-5.0595251960E+00 -5.0520073250E+00 -5.0445117622E+00 -5.0370384085E+00
-5.0295871653E+00 -5.0221579346E+00 -5.0147506190E+00 -5.0073651217E+00
-5.0000013464E+00 -4.9926591975E+00 -4.9853385798E+00 -4.9780393987E+00
-4.9707615603E+00 -4.9635049710E+00 -4.9562695379E+00 -4.9490551687E+00
-4.9418617714E+00 -4.9346892548E+00 -4.9275375281E+00 -4.9204065011E+00
-4.9132960839E+00 -4.9062061874E+00 -4.8991367229E+00 -4.8920876021E+00