<UPF version="2.0.1"><PP_INFO>This pseudopotential file has been produced using the code
ONCVPSP (Optimized Norm-Conservinng Vanderbilt PSeudopotential)
scalar-relativistic version 3.3.0 08/16/2017 by D. R. Hamann
The code is available through a link at URL www.mat-simresearch.com.
Documentation with the package provides a full discription of the
input data below.
While it is not required under the terms of the GNU GPL, it is
suggested that you cite D. R. Hamann, Phys. Rev. B 88, 085117 (2013)
in any publication using these pseudopotentials.<PP_INPUTFILE>
# ATOM AND REFERENCE CONFIGURATION
# atsym z nc nv iexc psfile
C 6.00 1 2 -116133 upf
#
# n l f energy (Ha)
1 0 2.00
2 0 2.00
2 1 2.00
#
# PSEUDOPOTENTIAL AND OPTIMIZATION
# lmax
1
#
# l, rc, ep, ncon, nbas, qcut
0 1.20000 -0.50157 4 7 9.00000
1 1.25000 -0.19233 4 8 9.40000
#
# LOCAL POTENTIAL
# lloc, lpopt, rc(5), dvloc0
4 5 1.20000 0.00000
#
# VANDERBILT-KLEINMAN-BYLANDER PROJECTORs
# l, nproj, debl
0 2 2.00000
1 2 1.50000
#
# MODEL CORE CHARGE
# icmod, fcfact, rcfact
3 4.00000 1.55000
#
# LOG DERIVATIVE ANALYSIS
# epsh1, epsh2, depsh
-12.00 12.00 0.02
#
# OUTPUT GRID
# rlmax, drl
6.00 0.01
#
# TEST CONFIGURATIONS
# ncnf
0
# nvcnf
# n l f</PP_INPUTFILE></PP_INFO><PP_HEADER generated="Generated using ONCVPSP code by D. R. Hamann" author="anonymous" date="180301" comment="" element="C " pseudo_type="NC" relativistic="scalar" is_ultrasoft="F" is_paw="F" is_coulomb="F" has_so="F" has_wfc="F" has_gipaw="F" core_correction="T" functional="PBESOL" z_valence="    4.00" total_psenergy="  -1.07282289662E+01" rho_cutoff="   1.24700000000E+01" l_max="1" l_local="-1" mesh_size="  1248" number_of_wfc="2" number_of_proj="4"/><PP_MESH><PP_R type="real" size="1248" columns="8">
0.0000 0.0100 0.0200 0.0300 0.0400 0.0500 0.0600 0.0700
0.0800 0.0900 0.1000 0.1100 0.1200 0.1300 0.1400 0.1500
0.1600 0.1700 0.1800 0.1900 0.2000 0.2100 0.2200 0.2300
0.2400 0.2500 0.2600 0.2700 0.2800 0.2900 0.3000 0.3100
0.3200 0.3300 0.3400 0.3500 0.3600 0.3700 0.3800 0.3900
0.4000 0.4100 0.4200 0.4300 0.4400 0.4500 0.4600 0.4700
0.4800 0.4900 0.5000 0.5100 0.5200 0.5300 0.5400 0.5500
0.5600 0.5700 0.5800 0.5900 0.6000 0.6100 0.6200 0.6300
0.6400 0.6500 0.6600 0.6700 0.6800 0.6900 0.7000 0.7100
0.7200 0.7300 0.7400 0.7500 0.7600 0.7700 0.7800 0.7900
0.8000 0.8100 0.8200 0.8300 0.8400 0.8500 0.8600 0.8700
0.8800 0.8900 0.9000 0.9100 0.9200 0.9300 0.9400 0.9500
0.9600 0.9700 0.9800 0.9900 1.0000 1.0100 1.0200 1.0300
1.0400 1.0500 1.0600 1.0700 1.0800 1.0900 1.1000 1.1100
1.1200 1.1300 1.1400 1.1500 1.1600 1.1700 1.1800 1.1900
1.2000 1.2100 1.2200 1.2300 1.2400 1.2500 1.2600 1.2700
1.2800 1.2900 1.3000 1.3100 1.3200 1.3300 1.3400 1.3500
1.3600 1.3700 1.3800 1.3900 1.4000 1.4100 1.4200 1.4300
1.4400 1.4500 1.4600 1.4700 1.4800 1.4900 1.5000 1.5100
1.5200 1.5300 1.5400 1.5500 1.5600 1.5700 1.5800 1.5900
1.6000 1.6100 1.6200 1.6300 1.6400 1.6500 1.6600 1.6700
1.6800 1.6900 1.7000 1.7100 1.7200 1.7300 1.7400 1.7500
1.7600 1.7700 1.7800 1.7900 1.8000 1.8100 1.8200 1.8300
1.8400 1.8500 1.8600 1.8700 1.8800 1.8900 1.9000 1.9100
1.9200 1.9300 1.9400 1.9500 1.9600 1.9700 1.9800 1.9900
2.0000 2.0100 2.0200 2.0300 2.0400 2.0500 2.0600 2.0700
2.0800 2.0900 2.1000 2.1100 2.1200 2.1300 2.1400 2.1500
2.1600 2.1700 2.1800 2.1900 2.2000 2.2100 2.2200 2.2300
2.2400 2.2500 2.2600 2.2700 2.2800 2.2900 2.3000 2.3100
2.3200 2.3300 2.3400 2.3500 2.3600 2.3700 2.3800 2.3900
2.4000 2.4100 2.4200 2.4300 2.4400 2.4500 2.4600 2.4700
2.4800 2.4900 2.5000 2.5100 2.5200 2.5300 2.5400 2.5500
2.5600 2.5700 2.5800 2.5900 2.6000 2.6100 2.6200 2.6300
2.6400 2.6500 2.6600 2.6700 2.6800 2.6900 2.7000 2.7100
2.7200 2.7300 2.7400 2.7500 2.7600 2.7700 2.7800 2.7900
2.8000 2.8100 2.8200 2.8300 2.8400 2.8500 2.8600 2.8700
2.8800 2.8900 2.9000 2.9100 2.9200 2.9300 2.9400 2.9500
2.9600 2.9700 2.9800 2.9900 3.0000 3.0100 3.0200 3.0300
3.0400 3.0500 3.0600 3.0700 3.0800 3.0900 3.1000 3.1100
3.1200 3.1300 3.1400 3.1500 3.1600 3.1700 3.1800 3.1900
3.2000 3.2100 3.2200 3.2300 3.2400 3.2500 3.2600 3.2700
3.2800 3.2900 3.3000 3.3100 3.3200 3.3300 3.3400 3.3500
3.3600 3.3700 3.3800 3.3900 3.4000 3.4100 3.4200 3.4300
3.4400 3.4500 3.4600 3.4700 3.4800 3.4900 3.5000 3.5100
3.5200 3.5300 3.5400 3.5500 3.5600 3.5700 3.5800 3.5900
3.6000 3.6100 3.6200 3.6300 3.6400 3.6500 3.6600 3.6700
3.6800 3.6900 3.7000 3.7100 3.7200 3.7300 3.7400 3.7500
3.7600 3.7700 3.7800 3.7900 3.8000 3.8100 3.8200 3.8300
3.8400 3.8500 3.8600 3.8700 3.8800 3.8900 3.9000 3.9100
3.9200 3.9300 3.9400 3.9500 3.9600 3.9700 3.9800 3.9900
4.0000 4.0100 4.0200 4.0300 4.0400 4.0500 4.0600 4.0700
4.0800 4.0900 4.1000 4.1100 4.1200 4.1300 4.1400 4.1500
4.1600 4.1700 4.1800 4.1900 4.2000 4.2100 4.2200 4.2300
4.2400 4.2500 4.2600 4.2700 4.2800 4.2900 4.3000 4.3100
4.3200 4.3300 4.3400 4.3500 4.3600 4.3700 4.3800 4.3900
4.4000 4.4100 4.4200 4.4300 4.4400 4.4500 4.4600 4.4700
4.4800 4.4900 4.5000 4.5100 4.5200 4.5300 4.5400 4.5500
4.5600 4.5700 4.5800 4.5900 4.6000 4.6100 4.6200 4.6300
4.6400 4.6500 4.6600 4.6700 4.6800 4.6900 4.7000 4.7100
4.7200 4.7300 4.7400 4.7500 4.7600 4.7700 4.7800 4.7900
4.8000 4.8100 4.8200 4.8300 4.8400 4.8500 4.8600 4.8700
4.8800 4.8900 4.9000 4.9100 4.9200 4.9300 4.9400 4.9500
4.9600 4.9700 4.9800 4.9900 5.0000 5.0100 5.0200 5.0300
5.0400 5.0500 5.0600 5.0700 5.0800 5.0900 5.1000 5.1100
5.1200 5.1300 5.1400 5.1500 5.1600 5.1700 5.1800 5.1900
5.2000 5.2100 5.2200 5.2300 5.2400 5.2500 5.2600 5.2700
5.2800 5.2900 5.3000 5.3100 5.3200 5.3300 5.3400 5.3500
5.3600 5.3700 5.3800 5.3900 5.4000 5.4100 5.4200 5.4300
5.4400 5.4500 5.4600 5.4700 5.4800 5.4900 5.5000 5.5100
5.5200 5.5300 5.5400 5.5500 5.5600 5.5700 5.5800 5.5900
5.6000 5.6100 5.6200 5.6300 5.6400 5.6500 5.6600 5.6700
5.6800 5.6900 5.7000 5.7100 5.7200 5.7300 5.7400 5.7500
5.7600 5.7700 5.7800 5.7900 5.8000 5.8100 5.8200 5.8300
5.8400 5.8500 5.8600 5.8700 5.8800 5.8900 5.9000 5.9100
5.9200 5.9300 5.9400 5.9500 5.9600 5.9700 5.9800 5.9900
6.0000 6.0100 6.0200 6.0300 6.0400 6.0500 6.0600 6.0700
6.0800 6.0900 6.1000 6.1100 6.1200 6.1300 6.1400 6.1500
6.1600 6.1700 6.1800 6.1900 6.2000 6.2100 6.2200 6.2300
6.2400 6.2500 6.2600 6.2700 6.2800 6.2900 6.3000 6.3100
6.3200 6.3300 6.3400 6.3500 6.3600 6.3700 6.3800 6.3900
6.4000 6.4100 6.4200 6.4300 6.4400 6.4500 6.4600 6.4700
6.4800 6.4900 6.5000 6.5100 6.5200 6.5300 6.5400 6.5500
6.5600 6.5700 6.5800 6.5900 6.6000 6.6100 6.6200 6.6300
6.6400 6.6500 6.6600 6.6700 6.6800 6.6900 6.7000 6.7100
6.7200 6.7300 6.7400 6.7500 6.7600 6.7700 6.7800 6.7900
6.8000 6.8100 6.8200 6.8300 6.8400 6.8500 6.8600 6.8700
6.8800 6.8900 6.9000 6.9100 6.9200 6.9300 6.9400 6.9500
6.9600 6.9700 6.9800 6.9900 7.0000 7.0100 7.0200 7.0300
7.0400 7.0500 7.0600 7.0700 7.0800 7.0900 7.1000 7.1100
7.1200 7.1300 7.1400 7.1500 7.1600 7.1700 7.1800 7.1900
7.2000 7.2100 7.2200 7.2300 7.2400 7.2500 7.2600 7.2700
7.2800 7.2900 7.3000 7.3100 7.3200 7.3300 7.3400 7.3500
7.3600 7.3700 7.3800 7.3900 7.4000 7.4100 7.4200 7.4300
7.4400 7.4500 7.4600 7.4700 7.4800 7.4900 7.5000 7.5100
7.5200 7.5300 7.5400 7.5500 7.5600 7.5700 7.5800 7.5900
7.6000 7.6100 7.6200 7.6300 7.6400 7.6500 7.6600 7.6700
7.6800 7.6900 7.7000 7.7100 7.7200 7.7300 7.7400 7.7500
7.7600 7.7700 7.7800 7.7900 7.8000 7.8100 7.8200 7.8300
7.8400 7.8500 7.8600 7.8700 7.8800 7.8900 7.9000 7.9100
7.9200 7.9300 7.9400 7.9500 7.9600 7.9700 7.9800 7.9900
8.0000 8.0100 8.0200 8.0300 8.0400 8.0500 8.0600 8.0700
8.0800 8.0900 8.1000 8.1100 8.1200 8.1300 8.1400 8.1500
8.1600 8.1700 8.1800 8.1900 8.2000 8.2100 8.2200 8.2300
8.2400 8.2500 8.2600 8.2700 8.2800 8.2900 8.3000 8.3100
8.3200 8.3300 8.3400 8.3500 8.3600 8.3700 8.3800 8.3900
8.4000 8.4100 8.4200 8.4300 8.4400 8.4500 8.4600 8.4700
8.4800 8.4900 8.5000 8.5100 8.5200 8.5300 8.5400 8.5500
8.5600 8.5700 8.5800 8.5900 8.6000 8.6100 8.6200 8.6300
8.6400 8.6500 8.6600 8.6700 8.6800 8.6900 8.7000 8.7100
8.7200 8.7300 8.7400 8.7500 8.7600 8.7700 8.7800 8.7900
8.8000 8.8100 8.8200 8.8300 8.8400 8.8500 8.8600 8.8700
8.8800 8.8900 8.9000 8.9100 8.9200 8.9300 8.9400 8.9500
8.9600 8.9700 8.9800 8.9900 9.0000 9.0100 9.0200 9.0300
9.0400 9.0500 9.0600 9.0700 9.0800 9.0900 9.1000 9.1100
9.1200 9.1300 9.1400 9.1500 9.1600 9.1700 9.1800 9.1900
9.2000 9.2100 9.2200 9.2300 9.2400 9.2500 9.2600 9.2700
9.2800 9.2900 9.3000 9.3100 9.3200 9.3300 9.3400 9.3500
9.3600 9.3700 9.3800 9.3900 9.4000 9.4100 9.4200 9.4300
9.4400 9.4500 9.4600 9.4700 9.4800 9.4900 9.5000 9.5100
9.5200 9.5300 9.5400 9.5500 9.5600 9.5700 9.5800 9.5900
9.6000 9.6100 9.6200 9.6300 9.6400 9.6500 9.6600 9.6700
9.6800 9.6900 9.7000 9.7100 9.7200 9.7300 9.7400 9.7500
9.7600 9.7700 9.7800 9.7900 9.8000 9.8100 9.8200 9.8300
9.8400 9.8500 9.8600 9.8700 9.8800 9.8900 9.9000 9.9100
9.9200 9.9300 9.9400 9.9500 9.9600 9.9700 9.9800 9.9900
10.0000 10.0100 10.0200 10.0300 10.0400 10.0500 10.0600 10.0700
10.0800 10.0900 10.1000 10.1100 10.1200 10.1300 10.1400 10.1500
10.1600 10.1700 10.1800 10.1900 10.2000 10.2100 10.2200 10.2300
10.2400 10.2500 10.2600 10.2700 10.2800 10.2900 10.3000 10.3100
10.3200 10.3300 10.3400 10.3500 10.3600 10.3700 10.3800 10.3900
10.4000 10.4100 10.4200 10.4300 10.4400 10.4500 10.4600 10.4700
10.4800 10.4900 10.5000 10.5100 10.5200 10.5300 10.5400 10.5500
10.5600 10.5700 10.5800 10.5900 10.6000 10.6100 10.6200 10.6300
10.6400 10.6500 10.6600 10.6700 10.6800 10.6900 10.7000 10.7100
10.7200 10.7300 10.7400 10.7500 10.7600 10.7700 10.7800 10.7900
10.8000 10.8100 10.8200 10.8300 10.8400 10.8500 10.8600 10.8700
10.8800 10.8900 10.9000 10.9100 10.9200 10.9300 10.9400 10.9500
10.9600 10.9700 10.9800 10.9900 11.0000 11.0100 11.0200 11.0300
11.0400 11.0500 11.0600 11.0700 11.0800 11.0900 11.1000 11.1100
11.1200 11.1300 11.1400 11.1500 11.1600 11.1700 11.1800 11.1900
11.2000 11.2100 11.2200 11.2300 11.2400 11.2500 11.2600 11.2700
11.2800 11.2900 11.3000 11.3100 11.3200 11.3300 11.3400 11.3500
11.3600 11.3700 11.3800 11.3900 11.4000 11.4100 11.4200 11.4300
11.4400 11.4500 11.4600 11.4700 11.4800 11.4900 11.5000 11.5100
11.5200 11.5300 11.5400 11.5500 11.5600 11.5700 11.5800 11.5900
11.6000 11.6100 11.6200 11.6300 11.6400 11.6500 11.6600 11.6700
11.6800 11.6900 11.7000 11.7100 11.7200 11.7300 11.7400 11.7500
11.7600 11.7700 11.7800 11.7900 11.8000 11.8100 11.8200 11.8300
11.8400 11.8500 11.8600 11.8700 11.8800 11.8900 11.9000 11.9100
11.9200 11.9300 11.9400 11.9500 11.9600 11.9700 11.9800 11.9900
12.0000 12.0100 12.0200 12.0300 12.0400 12.0500 12.0600 12.0700
12.0800 12.0900 12.1000 12.1100 12.1200 12.1300 12.1400 12.1500
12.1600 12.1700 12.1800 12.1900 12.2000 12.2100 12.2200 12.2300
12.2400 12.2500 12.2600 12.2700 12.2800 12.2900 12.3000 12.3100
12.3200 12.3300 12.3400 12.3500 12.3600 12.3700 12.3800 12.3900
12.4000 12.4100 12.4200 12.4300 12.4400 12.4500 12.4600 12.4700</PP_R><PP_RAB type="real" size="1248" columns="8">
0.0100 0.0100 0.0100 0.0100 0.0100 0.0100 0.0100 0.0100
0.0100 0.0100 0.0100 0.0100 0.0100 0.0100 0.0100 0.0100
0.0100 0.0100 0.0100 0.0100 0.0100 0.0100 0.0100 0.0100
0.0100 0.0100 0.0100 0.0100 0.0100 0.0100 0.0100 0.0100
0.0100 0.0100 0.0100 0.0100 0.0100 0.0100 0.0100 0.0100
0.0100 0.0100 0.0100 0.0100 0.0100 0.0100 0.0100 0.0100
0.0100 0.0100 0.0100 0.0100 0.0100 0.0100 0.0100 0.0100
0.0100 0.0100 0.0100 0.0100 0.0100 0.0100 0.0100 0.0100
0.0100 0.0100 0.0100 0.0100 0.0100 0.0100 0.0100 0.0100
0.0100 0.0100 0.0100 0.0100 0.0100 0.0100 0.0100 0.0100
0.0100 0.0100 0.0100 0.0100 0.0100 0.0100 0.0100 0.0100
0.0100 0.0100 0.0100 0.0100 0.0100 0.0100 0.0100 0.0100
0.0100 0.0100 0.0100 0.0100 0.0100 0.0100 0.0100 0.0100
0.0100 0.0100 0.0100 0.0100 0.0100 0.0100 0.0100 0.0100
0.0100 0.0100 0.0100 0.0100 0.0100 0.0100 0.0100 0.0100
0.0100 0.0100 0.0100 0.0100 0.0100 0.0100 0.0100 0.0100
0.0100 0.0100 0.0100 0.0100 0.0100 0.0100 0.0100 0.0100
0.0100 0.0100 0.0100 0.0100 0.0100 0.0100 0.0100 0.0100
0.0100 0.0100 0.0100 0.0100 0.0100 0.0100 0.0100 0.0100
0.0100 0.0100 0.0100 0.0100 0.0100 0.0100 0.0100 0.0100
0.0100 0.0100 0.0100 0.0100 0.0100 0.0100 0.0100 0.0100
0.0100 0.0100 0.0100 0.0100 0.0100 0.0100 0.0100 0.0100
0.0100 0.0100 0.0100 0.0100 0.0100 0.0100 0.0100 0.0100
0.0100 0.0100 0.0100 0.0100 0.0100 0.0100 0.0100 0.0100
0.0100 0.0100 0.0100 0.0100 0.0100 0.0100 0.0100 0.0100
0.0100 0.0100 0.0100 0.0100 0.0100 0.0100 0.0100 0.0100
0.0100 0.0100 0.0100 0.0100 0.0100 0.0100 0.0100 0.0100
0.0100 0.0100 0.0100 0.0100 0.0100 0.0100 0.0100 0.0100
0.0100 0.0100 0.0100 0.0100 0.0100 0.0100 0.0100 0.0100
0.0100 0.0100 0.0100 0.0100 0.0100 0.0100 0.0100 0.0100
0.0100 0.0100 0.0100 0.0100 0.0100 0.0100 0.0100 0.0100
0.0100 0.0100 0.0100 0.0100 0.0100 0.0100 0.0100 0.0100
0.0100 0.0100 0.0100 0.0100 0.0100 0.0100 0.0100 0.0100
0.0100 0.0100 0.0100 0.0100 0.0100 0.0100 0.0100 0.0100
0.0100 0.0100 0.0100 0.0100 0.0100 0.0100 0.0100 0.0100
0.0100 0.0100 0.0100 0.0100 0.0100 0.0100 0.0100 0.0100
0.0100 0.0100 0.0100 0.0100 0.0100 0.0100 0.0100 0.0100
0.0100 0.0100 0.0100 0.0100 0.0100 0.0100 0.0100 0.0100
0.0100 0.0100 0.0100 0.0100 0.0100 0.0100 0.0100 0.0100
0.0100 0.0100 0.0100 0.0100 0.0100 0.0100 0.0100 0.0100
0.0100 0.0100 0.0100 0.0100 0.0100 0.0100 0.0100 0.0100
0.0100 0.0100 0.0100 0.0100 0.0100 0.0100 0.0100 0.0100
0.0100 0.0100 0.0100 0.0100 0.0100 0.0100 0.0100 0.0100
0.0100 0.0100 0.0100 0.0100 0.0100 0.0100 0.0100 0.0100
0.0100 0.0100 0.0100 0.0100 0.0100 0.0100 0.0100 0.0100
0.0100 0.0100 0.0100 0.0100 0.0100 0.0100 0.0100 0.0100
0.0100 0.0100 0.0100 0.0100 0.0100 0.0100 0.0100 0.0100
0.0100 0.0100 0.0100 0.0100 0.0100 0.0100 0.0100 0.0100
0.0100 0.0100 0.0100 0.0100 0.0100 0.0100 0.0100 0.0100
0.0100 0.0100 0.0100 0.0100 0.0100 0.0100 0.0100 0.0100
0.0100 0.0100 0.0100 0.0100 0.0100 0.0100 0.0100 0.0100
0.0100 0.0100 0.0100 0.0100 0.0100 0.0100 0.0100 0.0100
0.0100 0.0100 0.0100 0.0100 0.0100 0.0100 0.0100 0.0100
0.0100 0.0100 0.0100 0.0100 0.0100 0.0100 0.0100 0.0100
0.0100 0.0100 0.0100 0.0100 0.0100 0.0100 0.0100 0.0100
0.0100 0.0100 0.0100 0.0100 0.0100 0.0100 0.0100 0.0100
0.0100 0.0100 0.0100 0.0100 0.0100 0.0100 0.0100 0.0100
0.0100 0.0100 0.0100 0.0100 0.0100 0.0100 0.0100 0.0100
0.0100 0.0100 0.0100 0.0100 0.0100 0.0100 0.0100 0.0100
0.0100 0.0100 0.0100 0.0100 0.0100 0.0100 0.0100 0.0100
0.0100 0.0100 0.0100 0.0100 0.0100 0.0100 0.0100 0.0100
0.0100 0.0100 0.0100 0.0100 0.0100 0.0100 0.0100 0.0100
0.0100 0.0100 0.0100 0.0100 0.0100 0.0100 0.0100 0.0100
0.0100 0.0100 0.0100 0.0100 0.0100 0.0100 0.0100 0.0100
0.0100 0.0100 0.0100 0.0100 0.0100 0.0100 0.0100 0.0100
0.0100 0.0100 0.0100 0.0100 0.0100 0.0100 0.0100 0.0100
0.0100 0.0100 0.0100 0.0100 0.0100 0.0100 0.0100 0.0100
0.0100 0.0100 0.0100 0.0100 0.0100 0.0100 0.0100 0.0100
0.0100 0.0100 0.0100 0.0100 0.0100 0.0100 0.0100 0.0100
0.0100 0.0100 0.0100 0.0100 0.0100 0.0100 0.0100 0.0100
0.0100 0.0100 0.0100 0.0100 0.0100 0.0100 0.0100 0.0100
0.0100 0.0100 0.0100 0.0100 0.0100 0.0100 0.0100 0.0100
0.0100 0.0100 0.0100 0.0100 0.0100 0.0100 0.0100 0.0100
0.0100 0.0100 0.0100 0.0100 0.0100 0.0100 0.0100 0.0100
0.0100 0.0100 0.0100 0.0100 0.0100 0.0100 0.0100 0.0100
0.0100 0.0100 0.0100 0.0100 0.0100 0.0100 0.0100 0.0100
0.0100 0.0100 0.0100 0.0100 0.0100 0.0100 0.0100 0.0100
0.0100 0.0100 0.0100 0.0100 0.0100 0.0100 0.0100 0.0100
0.0100 0.0100 0.0100 0.0100 0.0100 0.0100 0.0100 0.0100
0.0100 0.0100 0.0100 0.0100 0.0100 0.0100 0.0100 0.0100
0.0100 0.0100 0.0100 0.0100 0.0100 0.0100 0.0100 0.0100
0.0100 0.0100 0.0100 0.0100 0.0100 0.0100 0.0100 0.0100
0.0100 0.0100 0.0100 0.0100 0.0100 0.0100 0.0100 0.0100
0.0100 0.0100 0.0100 0.0100 0.0100 0.0100 0.0100 0.0100
0.0100 0.0100 0.0100 0.0100 0.0100 0.0100 0.0100 0.0100
0.0100 0.0100 0.0100 0.0100 0.0100 0.0100 0.0100 0.0100
0.0100 0.0100 0.0100 0.0100 0.0100 0.0100 0.0100 0.0100
0.0100 0.0100 0.0100 0.0100 0.0100 0.0100 0.0100 0.0100
0.0100 0.0100 0.0100 0.0100 0.0100 0.0100 0.0100 0.0100
0.0100 0.0100 0.0100 0.0100 0.0100 0.0100 0.0100 0.0100
0.0100 0.0100 0.0100 0.0100 0.0100 0.0100 0.0100 0.0100
0.0100 0.0100 0.0100 0.0100 0.0100 0.0100 0.0100 0.0100
0.0100 0.0100 0.0100 0.0100 0.0100 0.0100 0.0100 0.0100
0.0100 0.0100 0.0100 0.0100 0.0100 0.0100 0.0100 0.0100
0.0100 0.0100 0.0100 0.0100 0.0100 0.0100 0.0100 0.0100
0.0100 0.0100 0.0100 0.0100 0.0100 0.0100 0.0100 0.0100
0.0100 0.0100 0.0100 0.0100 0.0100 0.0100 0.0100 0.0100
0.0100 0.0100 0.0100 0.0100 0.0100 0.0100 0.0100 0.0100
0.0100 0.0100 0.0100 0.0100 0.0100 0.0100 0.0100 0.0100
0.0100 0.0100 0.0100 0.0100 0.0100 0.0100 0.0100 0.0100
0.0100 0.0100 0.0100 0.0100 0.0100 0.0100 0.0100 0.0100
0.0100 0.0100 0.0100 0.0100 0.0100 0.0100 0.0100 0.0100
0.0100 0.0100 0.0100 0.0100 0.0100 0.0100 0.0100 0.0100
0.0100 0.0100 0.0100 0.0100 0.0100 0.0100 0.0100 0.0100
0.0100 0.0100 0.0100 0.0100 0.0100 0.0100 0.0100 0.0100
0.0100 0.0100 0.0100 0.0100 0.0100 0.0100 0.0100 0.0100
0.0100 0.0100 0.0100 0.0100 0.0100 0.0100 0.0100 0.0100
0.0100 0.0100 0.0100 0.0100 0.0100 0.0100 0.0100 0.0100
0.0100 0.0100 0.0100 0.0100 0.0100 0.0100 0.0100 0.0100
0.0100 0.0100 0.0100 0.0100 0.0100 0.0100 0.0100 0.0100
0.0100 0.0100 0.0100 0.0100 0.0100 0.0100 0.0100 0.0100
0.0100 0.0100 0.0100 0.0100 0.0100 0.0100 0.0100 0.0100
0.0100 0.0100 0.0100 0.0100 0.0100 0.0100 0.0100 0.0100
0.0100 0.0100 0.0100 0.0100 0.0100 0.0100 0.0100 0.0100
0.0100 0.0100 0.0100 0.0100 0.0100 0.0100 0.0100 0.0100
0.0100 0.0100 0.0100 0.0100 0.0100 0.0100 0.0100 0.0100
0.0100 0.0100 0.0100 0.0100 0.0100 0.0100 0.0100 0.0100
0.0100 0.0100 0.0100 0.0100 0.0100 0.0100 0.0100 0.0100
0.0100 0.0100 0.0100 0.0100 0.0100 0.0100 0.0100 0.0100
0.0100 0.0100 0.0100 0.0100 0.0100 0.0100 0.0100 0.0100
0.0100 0.0100 0.0100 0.0100 0.0100 0.0100 0.0100 0.0100
0.0100 0.0100 0.0100 0.0100 0.0100 0.0100 0.0100 0.0100
0.0100 0.0100 0.0100 0.0100 0.0100 0.0100 0.0100 0.0100
0.0100 0.0100 0.0100 0.0100 0.0100 0.0100 0.0100 0.0100
0.0100 0.0100 0.0100 0.0100 0.0100 0.0100 0.0100 0.0100
0.0100 0.0100 0.0100 0.0100 0.0100 0.0100 0.0100 0.0100
0.0100 0.0100 0.0100 0.0100 0.0100 0.0100 0.0100 0.0100
0.0100 0.0100 0.0100 0.0100 0.0100 0.0100 0.0100 0.0100
0.0100 0.0100 0.0100 0.0100 0.0100 0.0100 0.0100 0.0100
0.0100 0.0100 0.0100 0.0100 0.0100 0.0100 0.0100 0.0100
0.0100 0.0100 0.0100 0.0100 0.0100 0.0100 0.0100 0.0100
0.0100 0.0100 0.0100 0.0100 0.0100 0.0100 0.0100 0.0100
0.0100 0.0100 0.0100 0.0100 0.0100 0.0100 0.0100 0.0100
0.0100 0.0100 0.0100 0.0100 0.0100 0.0100 0.0100 0.0100
0.0100 0.0100 0.0100 0.0100 0.0100 0.0100 0.0100 0.0100
0.0100 0.0100 0.0100 0.0100 0.0100 0.0100 0.0100 0.0100
0.0100 0.0100 0.0100 0.0100 0.0100 0.0100 0.0100 0.0100
0.0100 0.0100 0.0100 0.0100 0.0100 0.0100 0.0100 0.0100
0.0100 0.0100 0.0100 0.0100 0.0100 0.0100 0.0100 0.0100
0.0100 0.0100 0.0100 0.0100 0.0100 0.0100 0.0100 0.0100
0.0100 0.0100 0.0100 0.0100 0.0100 0.0100 0.0100 0.0100
0.0100 0.0100 0.0100 0.0100 0.0100 0.0100 0.0100 0.0100
0.0100 0.0100 0.0100 0.0100 0.0100 0.0100 0.0100 0.0100
0.0100 0.0100 0.0100 0.0100 0.0100 0.0100 0.0100 0.0100
0.0100 0.0100 0.0100 0.0100 0.0100 0.0100 0.0100 0.0100
0.0100 0.0100 0.0100 0.0100 0.0100 0.0100 0.0100 0.0100
0.0100 0.0100 0.0100 0.0100 0.0100 0.0100 0.0100 0.0100
0.0100 0.0100 0.0100 0.0100 0.0100 0.0100 0.0100 0.0100
0.0100 0.0100 0.0100 0.0100 0.0100 0.0100 0.0100 0.0100
0.0100 0.0100 0.0100 0.0100 0.0100 0.0100 0.0100 0.0100
0.0100 0.0100 0.0100 0.0100 0.0100 0.0100 0.0100 0.0100
0.0100 0.0100 0.0100 0.0100 0.0100 0.0100 0.0100 0.0100
0.0100 0.0100 0.0100 0.0100 0.0100 0.0100 0.0100 0.0100
0.0100 0.0100 0.0100 0.0100 0.0100 0.0100 0.0100 0.0100
0.0100 0.0100 0.0100 0.0100 0.0100 0.0100 0.0100 0.0100
0.0100 0.0100 0.0100 0.0100 0.0100 0.0100 0.0100 0.0100</PP_RAB></PP_MESH><PP_LOCAL type="real" size="1248" columns="4">
-1.3719634428E+01 -1.3718810022E+01 -1.3716337163E+01 -1.3712216958E+01
-1.3706451252E+01 -1.3699042629E+01 -1.3689994419E+01 -1.3679310704E+01
-1.3666996319E+01 -1.3653056870E+01 -1.3637498735E+01 -1.3620329082E+01
-1.3601555879E+01 -1.3581187912E+01 -1.3559234801E+01 -1.3535707012E+01
-1.3510615883E+01 -1.3483973634E+01 -1.3455793386E+01 -1.3426089172E+01
-1.3394875951E+01 -1.3362169608E+01 -1.3327986959E+01 -1.3292345746E+01
-1.3255264617E+01 -1.3216763114E+01 -1.3176861635E+01 -1.3135581401E+01
-1.3092944402E+01 -1.3048973345E+01 -1.3003691584E+01 -1.2957123044E+01
-1.2909292145E+01 -1.2860223707E+01 -1.2809942861E+01 -1.2758474953E+01
-1.2705845444E+01 -1.2652079817E+01 -1.2597203476E+01 -1.2541241661E+01
-1.2484219358E+01 -1.2426161224E+01 -1.2367091514E+01 -1.2307034024E+01
-1.2246012044E+01 -1.2184048315E+01 -1.2121165011E+01 -1.2057383725E+01
-1.1992725466E+01 -1.1927210679E+01 -1.1860859266E+01 -1.1793690621E+01
-1.1725723684E+01 -1.1656976993E+01 -1.1587468755E+01 -1.1517216917E+01
-1.1446239251E+01 -1.1374553438E+01 -1.1302177166E+01 -1.1229128222E+01
-1.1155424595E+01 -1.1081084574E+01 -1.1006126858E+01 -1.0930570653E+01
-1.0854435783E+01 -1.0777742789E+01 -1.0700513034E+01 -1.0622768800E+01
-1.0544533390E+01 -1.0465831217E+01 -1.0386687891E+01 -1.0307130301E+01
-1.0227186685E+01 -1.0146886693E+01 -1.0066261431E+01 -9.9853434948E+00
-9.9041669895E+00 -9.8227675209E+00 -9.7411821739E+00 -9.6594494646E+00
-9.5776092704E+00 -9.4957027354E+00 -9.4137721532E+00 -9.3318608263E+00
-9.2500129058E+00 -9.1682732121E+00 -9.0866870408E+00 -9.0052999574E+00
-8.9241575842E+00 -8.8433053839E+00 -8.7627884451E+00 -8.6826512720E+00
-8.6029375838E+00 -8.5236901259E+00 -8.4449504963E+00 -8.3667589896E+00
-8.2891544587E+00 -8.2121741961E+00 -8.1358538344E+00 -8.0602272650E+00
-7.9853265740E+00 -7.9111819944E+00 -7.8378218707E+00 -7.7652726361E+00
-7.6935587970E+00 -7.6227029252E+00 -7.5527256527E+00 -7.4836456684E+00
-7.4154797126E+00 -7.3482425695E+00 -7.2819470528E+00 -7.2166039848E+00
-7.1522221669E+00 -7.0888083397E+00 -7.0263671323E+00 -6.9649010018E+00
-6.9044101603E+00 -6.8448924855E+00 -6.7863433999E+00 -6.7287558268E+00
-6.6721202006E+00 -6.6164244511E+00 -6.5616550027E+00 -6.5077977912E+00
-6.4548388597E+00 -6.4027632887E+00 -6.3515526895E+00 -6.3011831052E+00
-6.2516271548E+00 -6.2028588611E+00 -6.1548588382E+00 -6.1076116621E+00
-6.0611032723E+00 -6.0153174447E+00 -5.9702377294E+00 -5.9258481262E+00
-5.8821332543E+00 -5.8390780114E+00 -5.7966672778E+00 -5.7548862468E+00
-5.7137204226E+00 -5.6731555670E+00 -5.6331777380E+00 -5.5937733018E+00
-5.5549289429E+00 -5.5166316741E+00 -5.4788688453E+00 -5.4416281508E+00
-5.4048976349E+00 -5.3686656959E+00 -5.3329210882E+00 -5.2976529234E+00
-5.2628506690E+00 -5.2285041461E+00 -5.1946035252E+00 -5.1611393209E+00
-5.1281023850E+00 -5.0954838985E+00 -5.0632753626E+00 -5.0314685885E+00
-5.0000556865E+00 -4.9690290539E+00 -4.9383813635E+00 -4.9081055501E+00
-4.8781947975E+00 -4.8486425255E+00 -4.8194423763E+00 -4.7905882008E+00
-4.7620740460E+00 -4.7338941412E+00 -4.7060428862E+00 -4.6785148382E+00
-4.6513047009E+00 -4.6244073126E+00 -4.5978176364E+00 -4.5715307500E+00
-4.5455418367E+00 -4.5198461772E+00 -4.4944391421E+00 -4.4693161853E+00
-4.4444728377E+00 -4.4199047027E+00 -4.3956074514E+00 -4.3715768192E+00
-4.3478086029E+00 -4.3242986585E+00 -4.3010428995E+00 -4.2780372963E+00
-4.2552778750E+00 -4.2327607182E+00 -4.2104819646E+00 -4.1884378103E+00
-4.1666245091E+00 -4.1450383744E+00 -4.1236757799E+00 -4.1025331611E+00
-4.0816070171E+00 -4.0608939113E+00 -4.0403904731E+00 -4.0200933989E+00
-3.9999994533E+00 -3.9801054696E+00 -3.9604083506E+00 -3.9409050685E+00
-3.9215926657E+00 -3.9024682538E+00 -3.8835290134E+00 -3.8647721935E+00
-3.8461951101E+00 -3.8277951452E+00 -3.8095697450E+00 -3.7915164182E+00
-3.7736327341E+00 -3.7559163205E+00 -3.7383648610E+00 -3.7209760932E+00
-3.7037478056E+00 -3.6866778354E+00 -3.6697640662E+00 -3.6530044247E+00
-3.6363968788E+00 -3.6199394351E+00 -3.6036301363E+00 -3.5874670593E+00
-3.5714483126E+00 -3.5555720353E+00 -3.5398363943E+00 -3.5242395835E+00
-3.5087798221E+00 -3.4934553536E+00 -3.4782644444E+00 -3.4632053838E+00
-3.4482764823E+00 -3.4334760724E+00 -3.4188025072E+00 -3.4042541611E+00
-3.3898294294E+00 -3.3755267283E+00 -3.3613444955E+00 -3.3472811904E+00
-3.3333352940E+00 -3.3195053100E+00 -3.3057897646E+00 -3.2921872069E+00
-3.2786962094E+00 -3.2653153691E+00 -3.2520433074E+00 -3.2388786736E+00
-3.2258201300E+00 -3.2128663619E+00 -3.2000160725E+00 -3.1872680337E+00
-3.1746210504E+00 -3.1620739466E+00 -3.1496254983E+00 -3.1372744689E+00
-3.1250196491E+00 -3.1128598355E+00 -3.1007938661E+00 -3.0888206134E+00
-3.0769391197E+00 -3.0651485434E+00 -3.0534480705E+00 -3.0418368312E+00
-3.0303138647E+00 -3.0188782019E+00 -3.0075288270E+00 -2.9962646666E+00
-2.9850846519E+00 -2.9739877231E+00 -2.9629729608E+00 -2.9520394493E+00
-2.9411863190E+00 -2.9304126815E+00 -2.9197176761E+00 -2.9091004583E+00
-2.8985601848E+00 -2.8880960197E+00 -2.8777071368E+00 -2.8673927233E+00
-2.8571519836E+00 -2.8469841314E+00 -2.8368883925E+00 -2.8268640018E+00
-2.8169102055E+00 -2.8070262606E+00 -2.7972114343E+00 -2.7874650041E+00
-2.7777862575E+00 -2.7681744920E+00 -2.7586290146E+00 -2.7491491420E+00
-2.7397342000E+00 -2.7303835240E+00 -2.7210964581E+00 -2.7118723553E+00
-2.7027105777E+00 -2.6936104956E+00 -2.6845714879E+00 -2.6755929418E+00
-2.6666742527E+00 -2.6578148241E+00 -2.6490140672E+00 -2.6402714012E+00
-2.6315862527E+00 -2.6229580560E+00 -2.6143862528E+00 -2.6058702919E+00
-2.5974096296E+00 -2.5890037288E+00 -2.5806520597E+00 -2.5723540990E+00
-2.5641093305E+00 -2.5559172441E+00 -2.5477773367E+00 -2.5396891113E+00
-2.5316520772E+00 -2.5236657500E+00 -2.5157296512E+00 -2.5078433086E+00
-2.5000062557E+00 -2.4922180318E+00 -2.4844781820E+00 -2.4767862570E+00
-2.4691418131E+00 -2.4615444119E+00 -2.4539936207E+00 -2.4464890117E+00
-2.4390301625E+00 -2.4316166560E+00 -2.4242480799E+00 -2.4169240270E+00
-2.4096440950E+00 -2.4024078863E+00 -2.3952150084E+00 -2.3880650730E+00
-2.3809576970E+00 -2.3738925013E+00 -2.3668691116E+00 -2.3598871579E+00
-2.3529462747E+00 -2.3460461006E+00 -2.3391862785E+00 -2.3323664554E+00
-2.3255862827E+00 -2.3188454154E+00 -2.3121435129E+00 -2.3054802382E+00
-2.2988552583E+00 -2.2922682442E+00 -2.2857188703E+00 -2.2792068149E+00
-2.2727317600E+00 -2.2662933911E+00 -2.2598913974E+00 -2.2535254714E+00
-2.2471953093E+00 -2.2409006104E+00 -2.2346410776E+00 -2.2284164171E+00
-2.2222263383E+00 -2.2160705538E+00 -2.2099487793E+00 -2.2038607338E+00
-2.1978061394E+00 -2.1917847211E+00 -2.1857962069E+00 -2.1798403280E+00
-2.1739168181E+00 -2.1680254143E+00 -2.1621658561E+00 -2.1563378861E+00
-2.1505412495E+00 -2.1447756943E+00 -2.1390409712E+00 -2.1333368336E+00
-2.1276630374E+00 -2.1220193412E+00 -2.1164055060E+00 -2.1108212956E+00
-2.1052664761E+00 -2.0997408159E+00 -2.0942440862E+00 -2.0887760603E+00
-2.0833365140E+00 -2.0779252254E+00 -2.0725419748E+00 -2.0671865449E+00
-2.0618587206E+00 -2.0565582889E+00 -2.0512850393E+00 -2.0460387631E+00
-2.0408192538E+00 -2.0356263073E+00 -2.0304597211E+00 -2.0253192952E+00
-2.0202048313E+00 -2.0151161332E+00 -2.0100530068E+00 -2.0050152597E+00
-2.0000027017E+00 -1.9950151442E+00 -1.9900524007E+00 -1.9851142864E+00
-1.9802006186E+00 -1.9753112161E+00 -1.9704458995E+00 -1.9656044915E+00
-1.9607868161E+00 -1.9559926993E+00 -1.9512219687E+00 -1.9464744535E+00
-1.9417499849E+00 -1.9370483953E+00 -1.9323695189E+00 -1.9277131917E+00
-1.9230792508E+00 -1.9184675354E+00 -1.9138778858E+00 -1.9093101442E+00
-1.9047641539E+00 -1.9002397600E+00 -1.8957368090E+00 -1.8912551488E+00
-1.8867946288E+00 -1.8823550997E+00 -1.8779364137E+00 -1.8735384243E+00
-1.8691609865E+00 -1.8648039566E+00 -1.8604671922E+00 -1.8561505522E+00
-1.8518538969E+00 -1.8475770878E+00 -1.8433199877E+00 -1.8390824607E+00
-1.8348643721E+00 -1.8306655884E+00 -1.8264859776E+00 -1.8223254084E+00
-1.8181837511E+00 -1.8140608770E+00 -1.8099566587E+00 -1.8058709698E+00
-1.8018036851E+00 -1.7977546805E+00 -1.7937238330E+00 -1.7897110209E+00
-1.7857161233E+00 -1.7817390205E+00 -1.7777795939E+00 -1.7738377259E+00
-1.7699132999E+00 -1.7660062006E+00 -1.7621163132E+00 -1.7582435245E+00
-1.7543877218E+00 -1.7505487937E+00 -1.7467266297E+00 -1.7429211201E+00
-1.7391321563E+00 -1.7353596307E+00 -1.7316034366E+00 -1.7278634680E+00
-1.7241396201E+00 -1.7204317890E+00 -1.7167398714E+00 -1.7130637651E+00
-1.7094033688E+00 -1.7057585820E+00 -1.7021293051E+00 -1.6985154393E+00
-1.6949168865E+00 -1.6913335498E+00 -1.6877653327E+00 -1.6842121398E+00
-1.6806738764E+00 -1.6771504486E+00 -1.6736417632E+00 -1.6701477280E+00
-1.6666682514E+00 -1.6632032426E+00 -1.6597526115E+00 -1.6563162688E+00
-1.6528941260E+00 -1.6494860952E+00 -1.6460920893E+00 -1.6427120219E+00
-1.6393458073E+00 -1.6359933606E+00 -1.6326545974E+00 -1.6293294341E+00
-1.6260177878E+00 -1.6227195763E+00 -1.6194347179E+00 -1.6161631317E+00
-1.6129047375E+00 -1.6096594556E+00 -1.6064272070E+00 -1.6032079134E+00
-1.6000014970E+00 -1.5968078807E+00 -1.5936269881E+00 -1.5904587432E+00
-1.5873030707E+00 -1.5841598960E+00 -1.5810291450E+00 -1.5779107442E+00
-1.5748046205E+00 -1.5717107017E+00 -1.5686289159E+00 -1.5655591920E+00
-1.5625014592E+00 -1.5594556475E+00 -1.5564216872E+00 -1.5533995092E+00
-1.5503890452E+00 -1.5473902271E+00 -1.5444029875E+00 -1.5414272595E+00
-1.5384629766E+00 -1.5355100729E+00 -1.5325684830E+00 -1.5296381421E+00
-1.5267189857E+00 -1.5238109499E+00 -1.5209139713E+00 -1.5180279870E+00
-1.5151529344E+00 -1.5122887516E+00 -1.5094353771E+00 -1.5065927497E+00
-1.5037608090E+00 -1.5009394946E+00 -1.4981287470E+00 -1.4953285069E+00
-1.4925387154E+00 -1.4897593143E+00 -1.4869902454E+00 -1.4842314515E+00
-1.4814828753E+00 -1.4787444602E+00 -1.4760161499E+00 -1.4732978887E+00
-1.4705896210E+00 -1.4678912920E+00 -1.4652028470E+00 -1.4625242317E+00
-1.4598553925E+00 -1.4571962757E+00 -1.4545468285E+00 -1.4519069981E+00
-1.4492767324E+00 -1.4466559793E+00 -1.4440446875E+00 -1.4414428057E+00
-1.4388502832E+00 -1.4362670695E+00 -1.4336931147E+00 -1.4311283690E+00
-1.4285727831E+00 -1.4260263080E+00 -1.4234888951E+00 -1.4209604961E+00
-1.4184410631E+00 -1.4159305484E+00 -1.4134289047E+00 -1.4109360852E+00
-1.4084520431E+00 -1.4059767324E+00 -1.4035101069E+00 -1.4010521211E+00
-1.3986027296E+00 -1.3961618875E+00 -1.3937295500E+00 -1.3913056728E+00