<UPF version="2.0.1"><PP_INFO>This pseudopotential file has been produced using the code
ONCVPSP (Optimized Norm-Conservinng Vanderbilt PSeudopotential)
scalar-relativistic version 3.3.0 08/16/2017 by D. R. Hamann
The code is available through a link at URL www.mat-simresearch.com.
Documentation with the package provides a full discription of the
input data below.
While it is not required under the terms of the GNU GPL, it is
suggested that you cite D. R. Hamann, Phys. Rev. B 88, 085117 (2013)
in any publication using these pseudopotentials.<PP_INPUTFILE>
# ATOM AND REFERENCE CONFIGURATION
# atsym z nc nv iexc psfile
H 1.00 0 1 -116133 upf
#
# n l f energy (Ha)
1 0 1.00
#
# PSEUDOPOTENTIAL AND OPTIMIZATION
# lmax
1
#
# l, rc, ep, ncon, nbas, qcut
0 1.00000 -0.23270 4 7 8.50000
1 0.70000 0.08000 4 7 11.00000
#
# LOCAL POTENTIAL
# lloc, lpopt, rc(5), dvloc0
4 5 0.70000 0.00000
#
# VANDERBILT-KLEINMAN-BYLANDER PROJECTORs
# l, nproj, debl
0 2 1.00000
1 1 1.00000
#
# MODEL CORE CHARGE
# icmod, fcfact, rcfact
0 0.00000 0.00000
#
# LOG DERIVATIVE ANALYSIS
# epsh1, epsh2, depsh
-12.00 12.00 0.02
#
# OUTPUT GRID
# rlmax, drl
3.00 0.01
#
# TEST CONFIGURATIONS
# ncnf
0
# nvcnf
# n l f</PP_INPUTFILE></PP_INFO><PP_HEADER generated="Generated using ONCVPSP code by D. R. Hamann" author="anonymous" date="180301" comment="" element="H " pseudo_type="NC" relativistic="scalar" is_ultrasoft="F" is_paw="F" is_coulomb="F" has_so="F" has_wfc="F" has_gipaw="F" core_correction="F" functional="PBESOL" z_valence="    1.00" total_psenergy="  -8.99514198301E-01" rho_cutoff="   1.17900000000E+01" l_max="1" l_local="-1" mesh_size="  1180" number_of_wfc="1" number_of_proj="3"/><PP_MESH><PP_R type="real" size="1180" columns="8">
0.0000 0.0100 0.0200 0.0300 0.0400 0.0500 0.0600 0.0700
0.0800 0.0900 0.1000 0.1100 0.1200 0.1300 0.1400 0.1500
0.1600 0.1700 0.1800 0.1900 0.2000 0.2100 0.2200 0.2300
0.2400 0.2500 0.2600 0.2700 0.2800 0.2900 0.3000 0.3100
0.3200 0.3300 0.3400 0.3500 0.3600 0.3700 0.3800 0.3900
0.4000 0.4100 0.4200 0.4300 0.4400 0.4500 0.4600 0.4700
0.4800 0.4900 0.5000 0.5100 0.5200 0.5300 0.5400 0.5500
0.5600 0.5700 0.5800 0.5900 0.6000 0.6100 0.6200 0.6300
0.6400 0.6500 0.6600 0.6700 0.6800 0.6900 0.7000 0.7100
0.7200 0.7300 0.7400 0.7500 0.7600 0.7700 0.7800 0.7900
0.8000 0.8100 0.8200 0.8300 0.8400 0.8500 0.8600 0.8700
0.8800 0.8900 0.9000 0.9100 0.9200 0.9300 0.9400 0.9500
0.9600 0.9700 0.9800 0.9900 1.0000 1.0100 1.0200 1.0300
1.0400 1.0500 1.0600 1.0700 1.0800 1.0900 1.1000 1.1100
1.1200 1.1300 1.1400 1.1500 1.1600 1.1700 1.1800 1.1900
1.2000 1.2100 1.2200 1.2300 1.2400 1.2500 1.2600 1.2700
1.2800 1.2900 1.3000 1.3100 1.3200 1.3300 1.3400 1.3500
1.3600 1.3700 1.3800 1.3900 1.4000 1.4100 1.4200 1.4300
1.4400 1.4500 1.4600 1.4700 1.4800 1.4900 1.5000 1.5100
1.5200 1.5300 1.5400 1.5500 1.5600 1.5700 1.5800 1.5900
1.6000 1.6100 1.6200 1.6300 1.6400 1.6500 1.6600 1.6700
1.6800 1.6900 1.7000 1.7100 1.7200 1.7300 1.7400 1.7500
1.7600 1.7700 1.7800 1.7900 1.8000 1.8100 1.8200 1.8300
1.8400 1.8500 1.8600 1.8700 1.8800 1.8900 1.9000 1.9100
1.9200 1.9300 1.9400 1.9500 1.9600 1.9700 1.9800 1.9900
2.0000 2.0100 2.0200 2.0300 2.0400 2.0500 2.0600 2.0700
2.0800 2.0900 2.1000 2.1100 2.1200 2.1300 2.1400 2.1500
2.1600 2.1700 2.1800 2.1900 2.2000 2.2100 2.2200 2.2300
2.2400 2.2500 2.2600 2.2700 2.2800 2.2900 2.3000 2.3100
2.3200 2.3300 2.3400 2.3500 2.3600 2.3700 2.3800 2.3900
2.4000 2.4100 2.4200 2.4300 2.4400 2.4500 2.4600 2.4700
2.4800 2.4900 2.5000 2.5100 2.5200 2.5300 2.5400 2.5500
2.5600 2.5700 2.5800 2.5900 2.6000 2.6100 2.6200 2.6300
2.6400 2.6500 2.6600 2.6700 2.6800 2.6900 2.7000 2.7100
2.7200 2.7300 2.7400 2.7500 2.7600 2.7700 2.7800 2.7900
2.8000 2.8100 2.8200 2.8300 2.8400 2.8500 2.8600 2.8700
2.8800 2.8900 2.9000 2.9100 2.9200 2.9300 2.9400 2.9500
2.9600 2.9700 2.9800 2.9900 3.0000 3.0100 3.0200 3.0300
3.0400 3.0500 3.0600 3.0700 3.0800 3.0900 3.1000 3.1100
3.1200 3.1300 3.1400 3.1500 3.1600 3.1700 3.1800 3.1900
3.2000 3.2100 3.2200 3.2300 3.2400 3.2500 3.2600 3.2700
3.2800 3.2900 3.3000 3.3100 3.3200 3.3300 3.3400 3.3500
3.3600 3.3700 3.3800 3.3900 3.4000 3.4100 3.4200 3.4300
3.4400 3.4500 3.4600 3.4700 3.4800 3.4900 3.5000 3.5100
3.5200 3.5300 3.5400 3.5500 3.5600 3.5700 3.5800 3.5900
3.6000 3.6100 3.6200 3.6300 3.6400 3.6500 3.6600 3.6700
3.6800 3.6900 3.7000 3.7100 3.7200 3.7300 3.7400 3.7500
3.7600 3.7700 3.7800 3.7900 3.8000 3.8100 3.8200 3.8300
3.8400 3.8500 3.8600 3.8700 3.8800 3.8900 3.9000 3.9100
3.9200 3.9300 3.9400 3.9500 3.9600 3.9700 3.9800 3.9900
4.0000 4.0100 4.0200 4.0300 4.0400 4.0500 4.0600 4.0700
4.0800 4.0900 4.1000 4.1100 4.1200 4.1300 4.1400 4.1500
4.1600 4.1700 4.1800 4.1900 4.2000 4.2100 4.2200 4.2300
4.2400 4.2500 4.2600 4.2700 4.2800 4.2900 4.3000 4.3100
4.3200 4.3300 4.3400 4.3500 4.3600 4.3700 4.3800 4.3900
4.4000 4.4100 4.4200 4.4300 4.4400 4.4500 4.4600 4.4700
4.4800 4.4900 4.5000 4.5100 4.5200 4.5300 4.5400 4.5500
4.5600 4.5700 4.5800 4.5900 4.6000 4.6100 4.6200 4.6300
4.6400 4.6500 4.6600 4.6700 4.6800 4.6900 4.7000 4.7100
4.7200 4.7300 4.7400 4.7500 4.7600 4.7700 4.7800 4.7900
4.8000 4.8100 4.8200 4.8300 4.8400 4.8500 4.8600 4.8700
4.8800 4.8900 4.9000 4.9100 4.9200 4.9300 4.9400 4.9500
4.9600 4.9700 4.9800 4.9900 5.0000 5.0100 5.0200 5.0300
5.0400 5.0500 5.0600 5.0700 5.0800 5.0900 5.1000 5.1100
5.1200 5.1300 5.1400 5.1500 5.1600 5.1700 5.1800 5.1900
5.2000 5.2100 5.2200 5.2300 5.2400 5.2500 5.2600 5.2700
5.2800 5.2900 5.3000 5.3100 5.3200 5.3300 5.3400 5.3500
5.3600 5.3700 5.3800 5.3900 5.4000 5.4100 5.4200 5.4300
5.4400 5.4500 5.4600 5.4700 5.4800 5.4900 5.5000 5.5100
5.5200 5.5300 5.5400 5.5500 5.5600 5.5700 5.5800 5.5900
5.6000 5.6100 5.6200 5.6300 5.6400 5.6500 5.6600 5.6700
5.6800 5.6900 5.7000 5.7100 5.7200 5.7300 5.7400 5.7500
5.7600 5.7700 5.7800 5.7900 5.8000 5.8100 5.8200 5.8300
5.8400 5.8500 5.8600 5.8700 5.8800 5.8900 5.9000 5.9100
5.9200 5.9300 5.9400 5.9500 5.9600 5.9700 5.9800 5.9900
6.0000 6.0100 6.0200 6.0300 6.0400 6.0500 6.0600 6.0700
6.0800 6.0900 6.1000 6.1100 6.1200 6.1300 6.1400 6.1500
6.1600 6.1700 6.1800 6.1900 6.2000 6.2100 6.2200 6.2300
6.2400 6.2500 6.2600 6.2700 6.2800 6.2900 6.3000 6.3100
6.3200 6.3300 6.3400 6.3500 6.3600 6.3700 6.3800 6.3900
6.4000 6.4100 6.4200 6.4300 6.4400 6.4500 6.4600 6.4700
6.4800 6.4900 6.5000 6.5100 6.5200 6.5300 6.5400 6.5500
6.5600 6.5700 6.5800 6.5900 6.6000 6.6100 6.6200 6.6300
6.6400 6.6500 6.6600 6.6700 6.6800 6.6900 6.7000 6.7100
6.7200 6.7300 6.7400 6.7500 6.7600 6.7700 6.7800 6.7900
6.8000 6.8100 6.8200 6.8300 6.8400 6.8500 6.8600 6.8700
6.8800 6.8900 6.9000 6.9100 6.9200 6.9300 6.9400 6.9500
6.9600 6.9700 6.9800 6.9900 7.0000 7.0100 7.0200 7.0300
7.0400 7.0500 7.0600 7.0700 7.0800 7.0900 7.1000 7.1100
7.1200 7.1300 7.1400 7.1500 7.1600 7.1700 7.1800 7.1900
7.2000 7.2100 7.2200 7.2300 7.2400 7.2500 7.2600 7.2700
7.2800 7.2900 7.3000 7.3100 7.3200 7.3300 7.3400 7.3500
7.3600 7.3700 7.3800 7.3900 7.4000 7.4100 7.4200 7.4300
7.4400 7.4500 7.4600 7.4700 7.4800 7.4900 7.5000 7.5100
7.5200 7.5300 7.5400 7.5500 7.5600 7.5700 7.5800 7.5900
7.6000 7.6100 7.6200 7.6300 7.6400 7.6500 7.6600 7.6700
7.6800 7.6900 7.7000 7.7100 7.7200 7.7300 7.7400 7.7500
7.7600 7.7700 7.7800 7.7900 7.8000 7.8100 7.8200 7.8300
7.8400 7.8500 7.8600 7.8700 7.8800 7.8900 7.9000 7.9100
7.9200 7.9300 7.9400 7.9500 7.9600 7.9700 7.9800 7.9900
8.0000 8.0100 8.0200 8.0300 8.0400 8.0500 8.0600 8.0700
8.0800 8.0900 8.1000 8.1100 8.1200 8.1300 8.1400 8.1500
8.1600 8.1700 8.1800 8.1900 8.2000 8.2100 8.2200 8.2300
8.2400 8.2500 8.2600 8.2700 8.2800 8.2900 8.3000 8.3100
8.3200 8.3300 8.3400 8.3500 8.3600 8.3700 8.3800 8.3900
8.4000 8.4100 8.4200 8.4300 8.4400 8.4500 8.4600 8.4700
8.4800 8.4900 8.5000 8.5100 8.5200 8.5300 8.5400 8.5500
8.5600 8.5700 8.5800 8.5900 8.6000 8.6100 8.6200 8.6300
8.6400 8.6500 8.6600 8.6700 8.6800 8.6900 8.7000 8.7100
8.7200 8.7300 8.7400 8.7500 8.7600 8.7700 8.7800 8.7900
8.8000 8.8100 8.8200 8.8300 8.8400 8.8500 8.8600 8.8700
8.8800 8.8900 8.9000 8.9100 8.9200 8.9300 8.9400 8.9500
8.9600 8.9700 8.9800 8.9900 9.0000 9.0100 9.0200 9.0300
9.0400 9.0500 9.0600 9.0700 9.0800 9.0900 9.1000 9.1100
9.1200 9.1300 9.1400 9.1500 9.1600 9.1700 9.1800 9.1900
9.2000 9.2100 9.2200 9.2300 9.2400 9.2500 9.2600 9.2700
9.2800 9.2900 9.3000 9.3100 9.3200 9.3300 9.3400 9.3500
9.3600 9.3700 9.3800 9.3900 9.4000 9.4100 9.4200 9.4300
9.4400 9.4500 9.4600 9.4700 9.4800 9.4900 9.5000 9.5100
9.5200 9.5300 9.5400 9.5500 9.5600 9.5700 9.5800 9.5900
9.6000 9.6100 9.6200 9.6300 9.6400 9.6500 9.6600 9.6700
9.6800 9.6900 9.7000 9.7100 9.7200 9.7300 9.7400 9.7500
9.7600 9.7700 9.7800 9.7900 9.8000 9.8100 9.8200 9.8300
9.8400 9.8500 9.8600 9.8700 9.8800 9.8900 9.9000 9.9100
9.9200 9.9300 9.9400 9.9500 9.9600 9.9700 9.9800 9.9900
10.0000 10.0100 10.0200 10.0300 10.0400 10.0500 10.0600 10.0700
10.0800 10.0900 10.1000 10.1100 10.1200 10.1300 10.1400 10.1500
10.1600 10.1700 10.1800 10.1900 10.2000 10.2100 10.2200 10.2300
10.2400 10.2500 10.2600 10.2700 10.2800 10.2900 10.3000 10.3100
10.3200 10.3300 10.3400 10.3500 10.3600 10.3700 10.3800 10.3900
10.4000 10.4100 10.4200 10.4300 10.4400 10.4500 10.4600 10.4700
10.4800 10.4900 10.5000 10.5100 10.5200 10.5300 10.5400 10.5500
10.5600 10.5700 10.5800 10.5900 10.6000 10.6100 10.6200 10.6300
10.6400 10.6500 10.6600 10.6700 10.6800 10.6900 10.7000 10.7100
10.7200 10.7300 10.7400 10.7500 10.7600 10.7700 10.7800 10.7900
10.8000 10.8100 10.8200 10.8300 10.8400 10.8500 10.8600 10.8700
10.8800 10.8900 10.9000 10.9100 10.9200 10.9300 10.9400 10.9500
10.9600 10.9700 10.9800 10.9900 11.0000 11.0100 11.0200 11.0300
11.0400 11.0500 11.0600 11.0700 11.0800 11.0900 11.1000 11.1100
11.1200 11.1300 11.1400 11.1500 11.1600 11.1700 11.1800 11.1900
11.2000 11.2100 11.2200 11.2300 11.2400 11.2500 11.2600 11.2700
11.2800 11.2900 11.3000 11.3100 11.3200 11.3300 11.3400 11.3500
11.3600 11.3700 11.3800 11.3900 11.4000 11.4100 11.4200 11.4300
11.4400 11.4500 11.4600 11.4700 11.4800 11.4900 11.5000 11.5100
11.5200 11.5300 11.5400 11.5500 11.5600 11.5700 11.5800 11.5900
11.6000 11.6100 11.6200 11.6300 11.6400 11.6500 11.6600 11.6700
11.6800 11.6900 11.7000 11.7100 11.7200 11.7300 11.7400 11.7500
11.7600 11.7700 11.7800 11.7900</PP_R><PP_RAB type="real" size="1180" columns="8">
0.0100 0.0100 0.0100 0.0100 0.0100 0.0100 0.0100 0.0100
0.0100 0.0100 0.0100 0.0100 0.0100 0.0100 0.0100 0.0100
0.0100 0.0100 0.0100 0.0100 0.0100 0.0100 0.0100 0.0100
0.0100 0.0100 0.0100 0.0100 0.0100 0.0100 0.0100 0.0100
0.0100 0.0100 0.0100 0.0100 0.0100 0.0100 0.0100 0.0100
0.0100 0.0100 0.0100 0.0100 0.0100 0.0100 0.0100 0.0100
0.0100 0.0100 0.0100 0.0100 0.0100 0.0100 0.0100 0.0100
0.0100 0.0100 0.0100 0.0100 0.0100 0.0100 0.0100 0.0100
0.0100 0.0100 0.0100 0.0100 0.0100 0.0100 0.0100 0.0100
0.0100 0.0100 0.0100 0.0100 0.0100 0.0100 0.0100 0.0100
0.0100 0.0100 0.0100 0.0100 0.0100 0.0100 0.0100 0.0100
0.0100 0.0100 0.0100 0.0100 0.0100 0.0100 0.0100 0.0100
0.0100 0.0100 0.0100 0.0100 0.0100 0.0100 0.0100 0.0100
0.0100 0.0100 0.0100 0.0100 0.0100 0.0100 0.0100 0.0100
0.0100 0.0100 0.0100 0.0100 0.0100 0.0100 0.0100 0.0100
0.0100 0.0100 0.0100 0.0100 0.0100 0.0100 0.0100 0.0100
0.0100 0.0100 0.0100 0.0100 0.0100 0.0100 0.0100 0.0100
0.0100 0.0100 0.0100 0.0100 0.0100 0.0100 0.0100 0.0100
0.0100 0.0100 0.0100 0.0100 0.0100 0.0100 0.0100 0.0100
0.0100 0.0100 0.0100 0.0100 0.0100 0.0100 0.0100 0.0100
0.0100 0.0100 0.0100 0.0100 0.0100 0.0100 0.0100 0.0100
0.0100 0.0100 0.0100 0.0100 0.0100 0.0100 0.0100 0.0100
0.0100 0.0100 0.0100 0.0100 0.0100 0.0100 0.0100 0.0100
0.0100 0.0100 0.0100 0.0100 0.0100 0.0100 0.0100 0.0100
0.0100 0.0100 0.0100 0.0100 0.0100 0.0100 0.0100 0.0100
0.0100 0.0100 0.0100 0.0100 0.0100 0.0100 0.0100 0.0100
0.0100 0.0100 0.0100 0.0100 0.0100 0.0100 0.0100 0.0100
0.0100 0.0100 0.0100 0.0100 0.0100 0.0100 0.0100 0.0100
0.0100 0.0100 0.0100 0.0100 0.0100 0.0100 0.0100 0.0100
0.0100 0.0100 0.0100 0.0100 0.0100 0.0100 0.0100 0.0100
0.0100 0.0100 0.0100 0.0100 0.0100 0.0100 0.0100 0.0100
0.0100 0.0100 0.0100 0.0100 0.0100 0.0100 0.0100 0.0100
0.0100 0.0100 0.0100 0.0100 0.0100 0.0100 0.0100 0.0100
0.0100 0.0100 0.0100 0.0100 0.0100 0.0100 0.0100 0.0100
0.0100 0.0100 0.0100 0.0100 0.0100 0.0100 0.0100 0.0100
0.0100 0.0100 0.0100 0.0100 0.0100 0.0100 0.0100 0.0100
0.0100 0.0100 0.0100 0.0100 0.0100 0.0100 0.0100 0.0100
0.0100 0.0100 0.0100 0.0100 0.0100 0.0100 0.0100 0.0100
0.0100 0.0100 0.0100 0.0100 0.0100 0.0100 0.0100 0.0100
0.0100 0.0100 0.0100 0.0100 0.0100 0.0100 0.0100 0.0100
0.0100 0.0100 0.0100 0.0100 0.0100 0.0100 0.0100 0.0100
0.0100 0.0100 0.0100 0.0100 0.0100 0.0100 0.0100 0.0100
0.0100 0.0100 0.0100 0.0100 0.0100 0.0100 0.0100 0.0100
0.0100 0.0100 0.0100 0.0100 0.0100 0.0100 0.0100 0.0100
0.0100 0.0100 0.0100 0.0100 0.0100 0.0100 0.0100 0.0100
0.0100 0.0100 0.0100 0.0100 0.0100 0.0100 0.0100 0.0100
0.0100 0.0100 0.0100 0.0100 0.0100 0.0100 0.0100 0.0100
0.0100 0.0100 0.0100 0.0100 0.0100 0.0100 0.0100 0.0100
0.0100 0.0100 0.0100 0.0100 0.0100 0.0100 0.0100 0.0100
0.0100 0.0100 0.0100 0.0100 0.0100 0.0100 0.0100 0.0100
0.0100 0.0100 0.0100 0.0100 0.0100 0.0100 0.0100 0.0100
0.0100 0.0100 0.0100 0.0100 0.0100 0.0100 0.0100 0.0100
0.0100 0.0100 0.0100 0.0100 0.0100 0.0100 0.0100 0.0100
0.0100 0.0100 0.0100 0.0100 0.0100 0.0100 0.0100 0.0100
0.0100 0.0100 0.0100 0.0100 0.0100 0.0100 0.0100 0.0100
0.0100 0.0100 0.0100 0.0100 0.0100 0.0100 0.0100 0.0100
0.0100 0.0100 0.0100 0.0100 0.0100 0.0100 0.0100 0.0100
0.0100 0.0100 0.0100 0.0100 0.0100 0.0100 0.0100 0.0100
0.0100 0.0100 0.0100 0.0100 0.0100 0.0100 0.0100 0.0100
0.0100 0.0100 0.0100 0.0100 0.0100 0.0100 0.0100 0.0100
0.0100 0.0100 0.0100 0.0100 0.0100 0.0100 0.0100 0.0100
0.0100 0.0100 0.0100 0.0100 0.0100 0.0100 0.0100 0.0100
0.0100 0.0100 0.0100 0.0100 0.0100 0.0100 0.0100 0.0100
0.0100 0.0100 0.0100 0.0100 0.0100 0.0100 0.0100 0.0100
0.0100 0.0100 0.0100 0.0100 0.0100 0.0100 0.0100 0.0100
0.0100 0.0100 0.0100 0.0100 0.0100 0.0100 0.0100 0.0100
0.0100 0.0100 0.0100 0.0100 0.0100 0.0100 0.0100 0.0100
0.0100 0.0100 0.0100 0.0100 0.0100 0.0100 0.0100 0.0100
0.0100 0.0100 0.0100 0.0100 0.0100 0.0100 0.0100 0.0100
0.0100 0.0100 0.0100 0.0100 0.0100 0.0100 0.0100 0.0100
0.0100 0.0100 0.0100 0.0100 0.0100 0.0100 0.0100 0.0100
0.0100 0.0100 0.0100 0.0100 0.0100 0.0100 0.0100 0.0100
0.0100 0.0100 0.0100 0.0100 0.0100 0.0100 0.0100 0.0100
0.0100 0.0100 0.0100 0.0100 0.0100 0.0100 0.0100 0.0100
0.0100 0.0100 0.0100 0.0100 0.0100 0.0100 0.0100 0.0100
0.0100 0.0100 0.0100 0.0100 0.0100 0.0100 0.0100 0.0100
0.0100 0.0100 0.0100 0.0100 0.0100 0.0100 0.0100 0.0100
0.0100 0.0100 0.0100 0.0100 0.0100 0.0100 0.0100 0.0100
0.0100 0.0100 0.0100 0.0100 0.0100 0.0100 0.0100 0.0100
0.0100 0.0100 0.0100 0.0100 0.0100 0.0100 0.0100 0.0100
0.0100 0.0100 0.0100 0.0100 0.0100 0.0100 0.0100 0.0100
0.0100 0.0100 0.0100 0.0100 0.0100 0.0100 0.0100 0.0100
0.0100 0.0100 0.0100 0.0100 0.0100 0.0100 0.0100 0.0100
0.0100 0.0100 0.0100 0.0100 0.0100 0.0100 0.0100 0.0100
0.0100 0.0100 0.0100 0.0100 0.0100 0.0100 0.0100 0.0100
0.0100 0.0100 0.0100 0.0100 0.0100 0.0100 0.0100 0.0100
0.0100 0.0100 0.0100 0.0100 0.0100 0.0100 0.0100 0.0100
0.0100 0.0100 0.0100 0.0100 0.0100 0.0100 0.0100 0.0100
0.0100 0.0100 0.0100 0.0100 0.0100 0.0100 0.0100 0.0100
0.0100 0.0100 0.0100 0.0100 0.0100 0.0100 0.0100 0.0100
0.0100 0.0100 0.0100 0.0100 0.0100 0.0100 0.0100 0.0100
0.0100 0.0100 0.0100 0.0100 0.0100 0.0100 0.0100 0.0100
0.0100 0.0100 0.0100 0.0100 0.0100 0.0100 0.0100 0.0100
0.0100 0.0100 0.0100 0.0100 0.0100 0.0100 0.0100 0.0100
0.0100 0.0100 0.0100 0.0100 0.0100 0.0100 0.0100 0.0100
0.0100 0.0100 0.0100 0.0100 0.0100 0.0100 0.0100 0.0100
0.0100 0.0100 0.0100 0.0100 0.0100 0.0100 0.0100 0.0100
0.0100 0.0100 0.0100 0.0100 0.0100 0.0100 0.0100 0.0100
0.0100 0.0100 0.0100 0.0100 0.0100 0.0100 0.0100 0.0100
0.0100 0.0100 0.0100 0.0100 0.0100 0.0100 0.0100 0.0100
0.0100 0.0100 0.0100 0.0100 0.0100 0.0100 0.0100 0.0100
0.0100 0.0100 0.0100 0.0100 0.0100 0.0100 0.0100 0.0100
0.0100 0.0100 0.0100 0.0100 0.0100 0.0100 0.0100 0.0100
0.0100 0.0100 0.0100 0.0100 0.0100 0.0100 0.0100 0.0100
0.0100 0.0100 0.0100 0.0100 0.0100 0.0100 0.0100 0.0100
0.0100 0.0100 0.0100 0.0100 0.0100 0.0100 0.0100 0.0100
0.0100 0.0100 0.0100 0.0100 0.0100 0.0100 0.0100 0.0100
0.0100 0.0100 0.0100 0.0100 0.0100 0.0100 0.0100 0.0100
0.0100 0.0100 0.0100 0.0100 0.0100 0.0100 0.0100 0.0100
0.0100 0.0100 0.0100 0.0100 0.0100 0.0100 0.0100 0.0100
0.0100 0.0100 0.0100 0.0100 0.0100 0.0100 0.0100 0.0100
0.0100 0.0100 0.0100 0.0100 0.0100 0.0100 0.0100 0.0100
0.0100 0.0100 0.0100 0.0100 0.0100 0.0100 0.0100 0.0100
0.0100 0.0100 0.0100 0.0100 0.0100 0.0100 0.0100 0.0100
0.0100 0.0100 0.0100 0.0100 0.0100 0.0100 0.0100 0.0100
0.0100 0.0100 0.0100 0.0100 0.0100 0.0100 0.0100 0.0100
0.0100 0.0100 0.0100 0.0100 0.0100 0.0100 0.0100 0.0100
0.0100 0.0100 0.0100 0.0100 0.0100 0.0100 0.0100 0.0100
0.0100 0.0100 0.0100 0.0100 0.0100 0.0100 0.0100 0.0100
0.0100 0.0100 0.0100 0.0100 0.0100 0.0100 0.0100 0.0100
0.0100 0.0100 0.0100 0.0100 0.0100 0.0100 0.0100 0.0100
0.0100 0.0100 0.0100 0.0100 0.0100 0.0100 0.0100 0.0100
0.0100 0.0100 0.0100 0.0100 0.0100 0.0100 0.0100 0.0100
0.0100 0.0100 0.0100 0.0100 0.0100 0.0100 0.0100 0.0100
0.0100 0.0100 0.0100 0.0100 0.0100 0.0100 0.0100 0.0100
0.0100 0.0100 0.0100 0.0100 0.0100 0.0100 0.0100 0.0100
0.0100 0.0100 0.0100 0.0100 0.0100 0.0100 0.0100 0.0100
0.0100 0.0100 0.0100 0.0100 0.0100 0.0100 0.0100 0.0100
0.0100 0.0100 0.0100 0.0100 0.0100 0.0100 0.0100 0.0100
0.0100 0.0100 0.0100 0.0100 0.0100 0.0100 0.0100 0.0100
0.0100 0.0100 0.0100 0.0100 0.0100 0.0100 0.0100 0.0100
0.0100 0.0100 0.0100 0.0100 0.0100 0.0100 0.0100 0.0100
0.0100 0.0100 0.0100 0.0100 0.0100 0.0100 0.0100 0.0100
0.0100 0.0100 0.0100 0.0100 0.0100 0.0100 0.0100 0.0100
0.0100 0.0100 0.0100 0.0100 0.0100 0.0100 0.0100 0.0100
0.0100 0.0100 0.0100 0.0100 0.0100 0.0100 0.0100 0.0100
0.0100 0.0100 0.0100 0.0100 0.0100 0.0100 0.0100 0.0100
0.0100 0.0100 0.0100 0.0100 0.0100 0.0100 0.0100 0.0100
0.0100 0.0100 0.0100 0.0100 0.0100 0.0100 0.0100 0.0100
0.0100 0.0100 0.0100 0.0100 0.0100 0.0100 0.0100 0.0100
0.0100 0.0100 0.0100 0.0100 0.0100 0.0100 0.0100 0.0100
0.0100 0.0100 0.0100 0.0100 0.0100 0.0100 0.0100 0.0100
0.0100 0.0100 0.0100 0.0100 0.0100 0.0100 0.0100 0.0100
0.0100 0.0100 0.0100 0.0100 0.0100 0.0100 0.0100 0.0100
0.0100 0.0100 0.0100 0.0100 0.0100 0.0100 0.0100 0.0100
0.0100 0.0100 0.0100 0.0100 0.0100 0.0100 0.0100 0.0100
0.0100 0.0100 0.0100 0.0100 0.0100 0.0100 0.0100 0.0100
0.0100 0.0100 0.0100 0.0100</PP_RAB></PP_MESH><PP_LOCAL type="real" size="1180" columns="4">
-6.2779431797E+00 -6.2764573097E+00 -6.2720049078E+00 -6.2646022430E+00
-6.2542759539E+00 -6.2410625172E+00 -6.2250075053E+00 -6.2061646876E+00
-6.1845950253E+00 -6.1603656067E+00 -6.1335485674E+00 -6.1042200378E+00
-6.0724591539E+00 -6.0383471607E+00 -6.0019666301E+00 -5.9634008066E+00
-5.9227330870E+00 -5.8800466332E+00 -5.8354241106E+00 -5.7889475429E+00
-5.7406982661E+00 -5.6907569683E+00 -5.6392037962E+00 -5.5861185110E+00
-5.5315806794E+00 -5.4756698819E+00 -5.4184659270E+00 -5.3600490578E+00
-5.3005001430E+00 -5.2399008424E+00 -5.1783337418E+00 -5.1158824522E+00
-5.0526316692E+00 -4.9886671919E+00 -4.9240758992E+00 -4.8589456830E+00
-4.7933653414E+00 -4.7274244301E+00 -4.6612130768E+00 -4.5948217600E+00
-4.5283410560E+00 -4.4618613563E+00 -4.3954725615E+00 -4.3292637539E+00
-4.2633228537E+00 -4.1977362646E+00 -4.1325885105E+00 -4.0679618708E+00
-4.0039360157E+00 -3.9405876478E+00 -3.8779901520E+00 -3.8162132566E+00
-3.7553227096E+00 -3.6953799707E+00 -3.6364419209E+00 -3.5785605904E+00
-3.5217829042E+00 -3.4661504468E+00 -3.4116992421E+00 -3.3584595501E+00
-3.3064556766E+00 -3.2557057953E+00 -3.2062217787E+00 -3.1580090376E+00
-3.1110663653E+00 -3.0653857845E+00 -3.0209523957E+00 -2.9777442233E+00
-2.9357320578E+00 -2.8948792909E+00 -2.8551417594E+00 -2.8164674852E+00
-2.7787986812E+00 -2.7420786056E+00 -2.7062547247E+00 -2.6712785930E+00
-2.6371058312E+00 -2.6036960568E+00 -2.5710128000E+00 -2.5390234020E+00
-2.5076988913E+00 -2.4770138385E+00 -2.4469461885E+00 -2.4174770702E+00
-2.3885905837E+00 -2.3602735688E+00 -2.3325153539E+00 -2.3053074894E+00
-2.2786434669E+00 -2.2525184274E+00 -2.2269288606E+00 -2.2018722986E+00
-2.1773470053E+00 -2.1533516671E+00 -2.1298850850E+00 -2.1069458740E+00
-2.0845321845E+00 -2.0626413565E+00 -2.0412697427E+00 -2.0204140348E+00
-2.0000682318E+00 -1.9802105223E+00 -1.9607940638E+00 -1.9417649674E+00
-1.9230947708E+00 -1.9047768010E+00 -1.8868068560E+00 -1.8691735187E+00
-1.8518662712E+00 -1.8348764288E+00 -1.8181956659E+00 -1.8018154118E+00
-1.7857276658E+00 -1.7699246622E+00 -1.7543989051E+00 -1.7391431624E+00
-1.7241504512E+00 -1.7094140269E+00 -1.6949273739E+00 -1.6806841952E+00
-1.6666784042E+00 -1.6529041150E+00 -1.6393556350E+00 -1.6260274568E+00
-1.6129142503E+00 -1.6000108562E+00 -1.5873122791E+00 -1.5748136807E+00
-1.5625103739E+00 -1.5503978172E+00 -1.5384716086E+00 -1.5267274806E+00
-1.5151612949E+00 -1.5037690378E+00 -1.4925468154E+00 -1.4814908492E+00
-1.4705974716E+00 -1.4598631225E+00 -1.4492843445E+00 -1.4388577801E+00
-1.4285801675E+00 -1.4184483376E+00 -1.4084592104E+00 -1.3986097921E+00
-1.3888971722E+00 -1.3793185203E+00 -1.3698710836E+00 -1.3605521843E+00
-1.3513592169E+00 -1.3422896458E+00 -1.3333410032E+00 -1.3245108864E+00
-1.3157969561E+00 -1.3071969341E+00 -1.2987086015E+00 -1.2903297965E+00
-1.2820584128E+00 -1.2738923977E+00 -1.2658297506E+00 -1.2578685212E+00
-1.2500068078E+00 -1.2422427561E+00 -1.2345745576E+00 -1.2270004480E+00
-1.2195187063E+00 -1.2121276530E+00 -1.2048256491E+00 -1.1976110951E+00
-1.1904824291E+00 -1.1834381267E+00 -1.1764766990E+00 -1.1695966920E+00
-1.1627966857E+00 -1.1560752928E+00 -1.1494311578E+00 -1.1428629563E+00
-1.1363693939E+00 -1.1299492057E+00 -1.1236011549E+00 -1.1173240326E+00
-1.1111166565E+00 -1.1049778707E+00 -1.0989065446E+00 -1.0929015722E+00
-1.0869618716E+00 -1.0810863845E+00 -1.0752740751E+00 -1.0695239299E+00
-1.0638349568E+00 -1.0582061849E+00 -1.0526366636E+00 -1.0471254623E+00
-1.0416716696E+00 -1.0362743934E+00 -1.0309327595E+00 -1.0256459119E+00
-1.0204130120E+00 -1.0152332384E+00 -1.0101057860E+00 -1.0050298660E+00
-1.0000047056E+00 -9.9502954702E-01 -9.9010364770E-01 -9.8522627965E-01
-9.8039672918E-01 -9.7561429650E-01 -9.7087829541E-01 -9.6618805301E-01
-9.6154290929E-01 -9.5694221689E-01 -9.5238534080E-01 -9.4787165800E-01
-9.4340055725E-01 -9.3897143881E-01 -9.3458371413E-01 -9.3023680561E-01
-9.2593014637E-01 -9.2166317994E-01 -9.1743536009E-01 -9.1324615056E-01
-9.0909502481E-01 -9.0498146588E-01 -9.0090496609E-01 -8.9686502687E-01
-8.9286115858E-01 -8.8889288025E-01 -8.8495971944E-01 -8.8106121204E-01
-8.7719690207E-01 -8.7336634152E-01 -8.6956909017E-01 -8.6580471542E-01
-8.6207279215E-01 -8.5837290250E-01 -8.5470463579E-01 -8.5106758831E-01
-8.4746136319E-01 -8.4388557028E-01 -8.4033982596E-01 -8.3682375306E-01
-8.3333698066E-01 -8.2987914403E-01 -8.2644988445E-01 -8.2304884911E-01
-8.1967569099E-01 -8.1633006873E-01 -8.1301164651E-01 -8.0972009397E-01
-8.0645508607E-01 -8.0321630298E-01 -8.0000343000E-01 -7.9681615745E-01
-7.9365418055E-01 -7.9051719935E-01 -7.8740491862E-01 -7.8431704777E-01
-7.8125330073E-01 -7.7821339591E-01 -7.7519705606E-01 -7.7220400823E-01
-7.6923398366E-01 -7.6628671772E-01 -7.6336194981E-01 -7.6045942329E-01
-7.5757888542E-01 -7.5472008726E-01 -7.5188278365E-01 -7.4906673305E-01
-7.4627169757E-01 -7.4349744284E-01 -7.4074373795E-01 -7.3801035542E-01
-7.3529707110E-01 -7.3260366415E-01 -7.2992991691E-01 -7.2727561492E-01
-7.2464054683E-01 -7.2202450432E-01 -7.1942728209E-01 -7.1684867776E-01
-7.1428849186E-01 -7.1174652776E-01 -7.0922259161E-01 -7.0671649230E-01
-7.0422804142E-01 -7.0175705320E-01 -6.9930334446E-01 -6.9686673459E-01
-6.9444704548E-01 -6.9204410148E-01 -6.8965772937E-01 -6.8728775831E-01
-6.8493401980E-01 -6.8259634765E-01 -6.8027457790E-01 -6.7796854885E-01
-6.7567810097E-01 -6.7340307688E-01 -6.7114332130E-01 -6.6889868105E-01
-6.6666900497E-01 -6.6445414394E-01 -6.6225395077E-01 -6.6006828026E-01
-6.5789698908E-01 -6.5573993582E-01 -6.5359698088E-01 -6.5146798651E-01
-6.4935281672E-01 -6.4725133731E-01 -6.4516341579E-01 -6.4308892138E-01
-6.4102772498E-01 -6.3897969915E-01 -6.3694471804E-01 -6.3492265743E-01
-6.3291339467E-01 -6.3091680864E-01 -6.2893277975E-01 -6.2696118993E-01
-6.2500192255E-01 -6.2305486245E-01 -6.2111989592E-01 -6.1919691064E-01
-6.1728579566E-01 -6.1538644142E-01 -6.1349873970E-01 -6.1162258361E-01
-6.0975786754E-01 -6.0790448718E-01 -6.0606233948E-01 -6.0423132265E-01
-6.0241133610E-01 -6.0060228048E-01 -5.9880405760E-01 -5.9701657045E-01
-5.9523972319E-01 -5.9347342110E-01 -5.9171757060E-01 -5.8997207918E-01
-5.8823685546E-01 -5.8651180911E-01 -5.8479685084E-01 -5.8309189244E-01
-5.8139684670E-01 -5.7971162742E-01 -5.7803614941E-01 -5.7637032845E-01
-5.7471408129E-01 -5.7306732565E-01 -5.7142998016E-01 -5.6980196441E-01
-5.6818319887E-01 -5.6657360495E-01 -5.6497310491E-01 -5.6338162191E-01
-5.6179907996E-01 -5.6022540394E-01 -5.5866051955E-01 -5.5710435331E-01
-5.5555683260E-01 -5.5401788555E-01 -5.5248744112E-01 -5.5096542904E-01
-5.4945177982E-01 -5.4794642472E-01 -5.4644929575E-01 -5.4496032568E-01
-5.4347944799E-01 -5.4200659690E-01 -5.4054170732E-01 -5.3908471487E-01
-5.3763555588E-01 -5.3619416733E-01 -5.3476048691E-01 -5.3333445293E-01
-5.3191600440E-01 -5.3050508096E-01 -5.2910162287E-01 -5.2770557106E-01
-5.2631686705E-01 -5.2493545297E-01 -5.2356127159E-01 -5.2219426625E-01
-5.2083438089E-01 -5.1948156002E-01 -5.1813574874E-01 -5.1679689272E-01
-5.1546493817E-01 -5.1413983186E-01 -5.1282152113E-01 -5.1150995383E-01
-5.1020507834E-01 -5.0890684360E-01 -5.0761519902E-01 -5.0633009457E-01
-5.0505148069E-01 -5.0377930833E-01 -5.0251352895E-01 -5.0125409447E-01
-5.0000095730E-01 -4.9875407033E-01 -4.9751338692E-01 -4.9627886088E-01
-4.9505044649E-01 -4.9382809848E-01 -4.9261177202E-01 -4.9140142273E-01
-4.9019700665E-01 -4.8899848027E-01 -4.8780580048E-01 -4.8661892461E-01
-4.8543781040E-01 -4.8426241598E-01 -4.8309269993E-01 -4.8192862117E-01
-4.8077013906E-01 -4.7961721334E-01 -4.7846980411E-01 -4.7732787190E-01
-4.7619137756E-01 -4.7506028235E-01 -4.7393454789E-01 -4.7281413615E-01
-4.7169900947E-01 -4.7058913054E-01 -4.6948446241E-01 -4.6838496847E-01
-4.6729061244E-01 -4.6620135839E-01 -4.6511717074E-01 -4.6403801420E-01
-4.6296385384E-01 -4.6189465504E-01 -4.6083038351E-01 -4.5977100526E-01
-4.5871648662E-01 -4.5766679423E-01 -4.5662189503E-01 -4.5558175626E-01
-4.5454634547E-01 -4.5351563048E-01 -4.5248957943E-01 -4.5146816072E-01
-4.5045134306E-01 -4.4943909544E-01 -4.4843138709E-01 -4.4742818757E-01
-4.4642946667E-01 -4.4543519446E-01 -4.4444534130E-01 -4.4345987778E-01
-4.4247877477E-01 -4.4150200338E-01 -4.4052953499E-01 -4.3956134123E-01
-4.3859739398E-01 -4.3763766536E-01 -4.3668212772E-01 -4.3573075369E-01
-4.3478351610E-01 -4.3384038803E-01 -4.3290134280E-01 -4.3196635395E-01
-4.3103539526E-01 -4.3010844071E-01 -4.2918546453E-01 -4.2826644117E-01
-4.2735134528E-01 -4.2644015174E-01 -4.2553283564E-01 -4.2462937227E-01
-4.2372973716E-01 -4.2283390602E-01 -4.2194185477E-01 -4.2105355954E-01
-4.2016899665E-01 -4.1928814264E-01 -4.1841097421E-01 -4.1753746829E-01
-4.1666760199E-01 -4.1580135259E-01 -4.1493869760E-01 -4.1407961469E-01
-4.1322408170E-01 -4.1237207669E-01 -4.1152357786E-01 -4.1067856364E-01
-4.0983701258E-01 -4.0899890345E-01 -4.0816421517E-01 -4.0733292683E-01
-4.0650501771E-01 -4.0568046725E-01 -4.0485925503E-01 -4.0404136084E-01
-4.0322676459E-01 -4.0241544639E-01 -4.0160738649E-01 -4.0080256529E-01
-4.0000096336E-01 -3.9920256143E-01 -3.9840734037E-01 -3.9761528121E-01
-3.9682636512E-01 -3.9604057344E-01 -3.9525788763E-01 -3.9447828933E-01
-3.9370176030E-01 -3.9292828244E-01 -3.9215783781E-01 -3.9139040859E-01
-3.9062597713E-01 -3.8986452589E-01 -3.8910603747E-01 -3.8835049462E-01
-3.8759788020E-01 -3.8684817724E-01 -3.8610136885E-01 -3.8535743831E-01
-3.8461636903E-01 -3.8387814451E-01 -3.8314274842E-01 -3.8241016452E-01
-3.8168037672E-01 -3.8095336904E-01 -3.8022912562E-01 -3.7950763073E-01
-3.7878886875E-01 -3.7807282417E-01 -3.7735948163E-01 -3.7664882584E-01
-3.7594084167E-01 -3.7523551407E-01 -3.7453282812E-01 -3.7383276901E-01
-3.7313532203E-01 -3.7244047259E-01 -3.7174820620E-01 -3.7105850849E-01
-3.7037136519E-01 -3.6968676213E-01 -3.6900468525E-01 -3.6832512060E-01
-3.6764805431E-01 -3.6697347265E-01 -3.6630136195E-01 -3.6563170866E-01
-3.6496449934E-01 -3.6429972062E-01 -3.6363735925E-01 -3.6297740206E-01
-3.6231983600E-01 -3.6166464808E-01 -3.6101182543E-01 -3.6036135527E-01
-3.5971322489E-01 -3.5906742171E-01 -3.5842393320E-01 -3.5778274695E-01
-3.5714385062E-01 -3.5650723197E-01 -3.5587287883E-01 -3.5524077914E-01
-3.5461092091E-01 -3.5398329223E-01 -3.5335788130E-01 -3.5273467637E-01
-3.5211366580E-01 -3.5149483801E-01 -3.5087818151E-01 -3.5026368491E-01
-3.4965133687E-01 -3.4904112614E-01 -3.4843304155E-01 -3.4782707201E-01
-3.4722320650E-01 -3.4662143409E-01 -3.4602174391E-01 -3.4542412516E-01
-3.4482856715E-01 -3.4423505922E-01 -3.4364359080E-01 -3.4305415142E-01
-3.4246673063E-01 -3.4188131809E-01 -3.4129790353E-01 -3.4071647671E-01
-3.4013702752E-01 -3.3955954587E-01 -3.3898402175E-01 -3.3841044524E-01
-3.3783880646E-01 -3.3726909562E-01 -3.3670130296E-01 -3.3613541883E-01
-3.3557143361E-01 -3.3500933776E-01 -3.3444912181E-01 -3.3389077634E-01
-3.3333429199E-01 -3.3277965949E-01 -3.3222686959E-01 -3.3167591313E-01
-3.3112678101E-01 -3.3057946418E-01 -3.3003395365E-01 -3.2949024050E-01
-3.2894831585E-01 -3.2840817091E-01 -3.2786979690E-01 -3.2733318515E-01
-3.2679832701E-01 -3.2626521389E-01 -3.2573383728E-01 -3.2520418870E-01
-3.2467625974E-01 -3.2415004204E-01 -3.2362552728E-01 -3.2310270722E-01
-3.2258157366E-01 -3.2206211844E-01 -3.2154433348E-01 -3.2102821073E-01
-3.2051374220E-01 -3.2000091995E-01 -3.1948973609E-01 -3.1898018278E-01
-3.1847225223E-01 -3.1796593671E-01 -3.1746122852E-01 -3.1695812002E-01
-3.1645660362E-01 -3.1595667176E-01 -3.1545831697E-01 -3.1496153177E-01