<UPF version="2.0.1"><PP_INFO>This pseudopotential file has been produced using the code
ONCVPSP (Optimized Norm-Conservinng Vanderbilt PSeudopotential)
scalar-relativistic version 3.3.0 08/16/2017 by D. R. Hamann
The code is available through a link at URL www.mat-simresearch.com.
Documentation with the package provides a full discription of the
input data below.
While it is not required under the terms of the GNU GPL, it is
suggested that you cite D. R. Hamann, Phys. Rev. B 88, 085117 (2013)
in any publication using these pseudopotentials.<PP_INPUTFILE>
# ATOM AND REFERENCE CONFIGURATION
# atsym z nc nv iexc psfile
I 53.00 8 3 -116133 upf
#
# n l f energy (Ha)
1 0 2.00
2 0 2.00
2 1 6.00
3 0 2.00
3 1 6.00
3 2 10.00
4 0 2.00
4 1 6.00
4 2 10.00
5 0 2.00
5 1 5.00
#
# PSEUDOPOTENTIAL AND OPTIMIZATION
# lmax
2
#
# l, rc, ep, ncon, nbas, qcut
0 1.95000 -0.64122 4 7 3.60000
1 1.85000 -0.26084 4 7 4.80000
2 1.85000 -1.84517 4 7 8.40000
#
# LOCAL POTENTIAL
# lloc, lpopt, rc(5), dvloc0
4 5 1.80000 0.00000
#
# VANDERBILT-KLEINMAN-BYLANDER PROJECTORs
# l, nproj, debl
0 2 2.80000
1 2 2.50000
2 2 2.00000
#
# MODEL CORE CHARGE
# icmod, fcfact, rcfact
3 8.80000 1.25000
#
# LOG DERIVATIVE ANALYSIS
# epsh1, epsh2, depsh
-12.00 12.00 0.02
#
# OUTPUT GRID
# rlmax, drl
6.00 0.01
#
# TEST CONFIGURATIONS
# ncnf
0
# nvcnf
# n l f</PP_INPUTFILE></PP_INFO><PP_HEADER generated="Generated using ONCVPSP code by D. R. Hamann" author="anonymous" date="180301" comment="" element="I " pseudo_type="NC" relativistic="scalar" is_ultrasoft="F" is_paw="F" is_coulomb="F" has_so="F" has_wfc="F" has_gipaw="F" core_correction="T" functional="PBESOL" z_valence="   17.00" total_psenergy="  -2.14771805069E+02" rho_cutoff="   1.18100000000E+01" l_max="2" l_local="-1" mesh_size="  1182" number_of_wfc="3" number_of_proj="6"/><PP_MESH><PP_R type="real" size="1182" columns="8">
0.0000 0.0100 0.0200 0.0300 0.0400 0.0500 0.0600 0.0700
0.0800 0.0900 0.1000 0.1100 0.1200 0.1300 0.1400 0.1500
0.1600 0.1700 0.1800 0.1900 0.2000 0.2100 0.2200 0.2300
0.2400 0.2500 0.2600 0.2700 0.2800 0.2900 0.3000 0.3100
0.3200 0.3300 0.3400 0.3500 0.3600 0.3700 0.3800 0.3900
0.4000 0.4100 0.4200 0.4300 0.4400 0.4500 0.4600 0.4700
0.4800 0.4900 0.5000 0.5100 0.5200 0.5300 0.5400 0.5500
0.5600 0.5700 0.5800 0.5900 0.6000 0.6100 0.6200 0.6300
0.6400 0.6500 0.6600 0.6700 0.6800 0.6900 0.7000 0.7100
0.7200 0.7300 0.7400 0.7500 0.7600 0.7700 0.7800 0.7900
0.8000 0.8100 0.8200 0.8300 0.8400 0.8500 0.8600 0.8700
0.8800 0.8900 0.9000 0.9100 0.9200 0.9300 0.9400 0.9500
0.9600 0.9700 0.9800 0.9900 1.0000 1.0100 1.0200 1.0300
1.0400 1.0500 1.0600 1.0700 1.0800 1.0900 1.1000 1.1100
1.1200 1.1300 1.1400 1.1500 1.1600 1.1700 1.1800 1.1900
1.2000 1.2100 1.2200 1.2300 1.2400 1.2500 1.2600 1.2700
1.2800 1.2900 1.3000 1.3100 1.3200 1.3300 1.3400 1.3500
1.3600 1.3700 1.3800 1.3900 1.4000 1.4100 1.4200 1.4300
1.4400 1.4500 1.4600 1.4700 1.4800 1.4900 1.5000 1.5100
1.5200 1.5300 1.5400 1.5500 1.5600 1.5700 1.5800 1.5900
1.6000 1.6100 1.6200 1.6300 1.6400 1.6500 1.6600 1.6700
1.6800 1.6900 1.7000 1.7100 1.7200 1.7300 1.7400 1.7500
1.7600 1.7700 1.7800 1.7900 1.8000 1.8100 1.8200 1.8300
1.8400 1.8500 1.8600 1.8700 1.8800 1.8900 1.9000 1.9100
1.9200 1.9300 1.9400 1.9500 1.9600 1.9700 1.9800 1.9900
2.0000 2.0100 2.0200 2.0300 2.0400 2.0500 2.0600 2.0700
2.0800 2.0900 2.1000 2.1100 2.1200 2.1300 2.1400 2.1500
2.1600 2.1700 2.1800 2.1900 2.2000 2.2100 2.2200 2.2300
2.2400 2.2500 2.2600 2.2700 2.2800 2.2900 2.3000 2.3100
2.3200 2.3300 2.3400 2.3500 2.3600 2.3700 2.3800 2.3900
2.4000 2.4100 2.4200 2.4300 2.4400 2.4500 2.4600 2.4700
2.4800 2.4900 2.5000 2.5100 2.5200 2.5300 2.5400 2.5500
2.5600 2.5700 2.5800 2.5900 2.6000 2.6100 2.6200 2.6300
2.6400 2.6500 2.6600 2.6700 2.6800 2.6900 2.7000 2.7100
2.7200 2.7300 2.7400 2.7500 2.7600 2.7700 2.7800 2.7900
2.8000 2.8100 2.8200 2.8300 2.8400 2.8500 2.8600 2.8700
2.8800 2.8900 2.9000 2.9100 2.9200 2.9300 2.9400 2.9500
2.9600 2.9700 2.9800 2.9900 3.0000 3.0100 3.0200 3.0300
3.0400 3.0500 3.0600 3.0700 3.0800 3.0900 3.1000 3.1100
3.1200 3.1300 3.1400 3.1500 3.1600 3.1700 3.1800 3.1900
3.2000 3.2100 3.2200 3.2300 3.2400 3.2500 3.2600 3.2700
3.2800 3.2900 3.3000 3.3100 3.3200 3.3300 3.3400 3.3500
3.3600 3.3700 3.3800 3.3900 3.4000 3.4100 3.4200 3.4300
3.4400 3.4500 3.4600 3.4700 3.4800 3.4900 3.5000 3.5100
3.5200 3.5300 3.5400 3.5500 3.5600 3.5700 3.5800 3.5900
3.6000 3.6100 3.6200 3.6300 3.6400 3.6500 3.6600 3.6700
3.6800 3.6900 3.7000 3.7100 3.7200 3.7300 3.7400 3.7500
3.7600 3.7700 3.7800 3.7900 3.8000 3.8100 3.8200 3.8300
3.8400 3.8500 3.8600 3.8700 3.8800 3.8900 3.9000 3.9100
3.9200 3.9300 3.9400 3.9500 3.9600 3.9700 3.9800 3.9900
4.0000 4.0100 4.0200 4.0300 4.0400 4.0500 4.0600 4.0700
4.0800 4.0900 4.1000 4.1100 4.1200 4.1300 4.1400 4.1500
4.1600 4.1700 4.1800 4.1900 4.2000 4.2100 4.2200 4.2300
4.2400 4.2500 4.2600 4.2700 4.2800 4.2900 4.3000 4.3100
4.3200 4.3300 4.3400 4.3500 4.3600 4.3700 4.3800 4.3900
4.4000 4.4100 4.4200 4.4300 4.4400 4.4500 4.4600 4.4700
4.4800 4.4900 4.5000 4.5100 4.5200 4.5300 4.5400 4.5500
4.5600 4.5700 4.5800 4.5900 4.6000 4.6100 4.6200 4.6300
4.6400 4.6500 4.6600 4.6700 4.6800 4.6900 4.7000 4.7100
4.7200 4.7300 4.7400 4.7500 4.7600 4.7700 4.7800 4.7900
4.8000 4.8100 4.8200 4.8300 4.8400 4.8500 4.8600 4.8700
4.8800 4.8900 4.9000 4.9100 4.9200 4.9300 4.9400 4.9500
4.9600 4.9700 4.9800 4.9900 5.0000 5.0100 5.0200 5.0300
5.0400 5.0500 5.0600 5.0700 5.0800 5.0900 5.1000 5.1100
5.1200 5.1300 5.1400 5.1500 5.1600 5.1700 5.1800 5.1900
5.2000 5.2100 5.2200 5.2300 5.2400 5.2500 5.2600 5.2700
5.2800 5.2900 5.3000 5.3100 5.3200 5.3300 5.3400 5.3500
5.3600 5.3700 5.3800 5.3900 5.4000 5.4100 5.4200 5.4300
5.4400 5.4500 5.4600 5.4700 5.4800 5.4900 5.5000 5.5100
5.5200 5.5300 5.5400 5.5500 5.5600 5.5700 5.5800 5.5900
5.6000 5.6100 5.6200 5.6300 5.6400 5.6500 5.6600 5.6700
5.6800 5.6900 5.7000 5.7100 5.7200 5.7300 5.7400 5.7500
5.7600 5.7700 5.7800 5.7900 5.8000 5.8100 5.8200 5.8300
5.8400 5.8500 5.8600 5.8700 5.8800 5.8900 5.9000 5.9100
5.9200 5.9300 5.9400 5.9500 5.9600 5.9700 5.9800 5.9900
6.0000 6.0100 6.0200 6.0300 6.0400 6.0500 6.0600 6.0700
6.0800 6.0900 6.1000 6.1100 6.1200 6.1300 6.1400 6.1500
6.1600 6.1700 6.1800 6.1900 6.2000 6.2100 6.2200 6.2300
6.2400 6.2500 6.2600 6.2700 6.2800 6.2900 6.3000 6.3100
6.3200 6.3300 6.3400 6.3500 6.3600 6.3700 6.3800 6.3900
6.4000 6.4100 6.4200 6.4300 6.4400 6.4500 6.4600 6.4700
6.4800 6.4900 6.5000 6.5100 6.5200 6.5300 6.5400 6.5500
6.5600 6.5700 6.5800 6.5900 6.6000 6.6100 6.6200 6.6300
6.6400 6.6500 6.6600 6.6700 6.6800 6.6900 6.7000 6.7100
6.7200 6.7300 6.7400 6.7500 6.7600 6.7700 6.7800 6.7900
6.8000 6.8100 6.8200 6.8300 6.8400 6.8500 6.8600 6.8700
6.8800 6.8900 6.9000 6.9100 6.9200 6.9300 6.9400 6.9500
6.9600 6.9700 6.9800 6.9900 7.0000 7.0100 7.0200 7.0300
7.0400 7.0500 7.0600 7.0700 7.0800 7.0900 7.1000 7.1100
7.1200 7.1300 7.1400 7.1500 7.1600 7.1700 7.1800 7.1900
7.2000 7.2100 7.2200 7.2300 7.2400 7.2500 7.2600 7.2700
7.2800 7.2900 7.3000 7.3100 7.3200 7.3300 7.3400 7.3500
7.3600 7.3700 7.3800 7.3900 7.4000 7.4100 7.4200 7.4300
7.4400 7.4500 7.4600 7.4700 7.4800 7.4900 7.5000 7.5100
7.5200 7.5300 7.5400 7.5500 7.5600 7.5700 7.5800 7.5900
7.6000 7.6100 7.6200 7.6300 7.6400 7.6500 7.6600 7.6700
7.6800 7.6900 7.7000 7.7100 7.7200 7.7300 7.7400 7.7500
7.7600 7.7700 7.7800 7.7900 7.8000 7.8100 7.8200 7.8300
7.8400 7.8500 7.8600 7.8700 7.8800 7.8900 7.9000 7.9100
7.9200 7.9300 7.9400 7.9500 7.9600 7.9700 7.9800 7.9900
8.0000 8.0100 8.0200 8.0300 8.0400 8.0500 8.0600 8.0700
8.0800 8.0900 8.1000 8.1100 8.1200 8.1300 8.1400 8.1500
8.1600 8.1700 8.1800 8.1900 8.2000 8.2100 8.2200 8.2300
8.2400 8.2500 8.2600 8.2700 8.2800 8.2900 8.3000 8.3100
8.3200 8.3300 8.3400 8.3500 8.3600 8.3700 8.3800 8.3900
8.4000 8.4100 8.4200 8.4300 8.4400 8.4500 8.4600 8.4700
8.4800 8.4900 8.5000 8.5100 8.5200 8.5300 8.5400 8.5500
8.5600 8.5700 8.5800 8.5900 8.6000 8.6100 8.6200 8.6300
8.6400 8.6500 8.6600 8.6700 8.6800 8.6900 8.7000 8.7100
8.7200 8.7300 8.7400 8.7500 8.7600 8.7700 8.7800 8.7900
8.8000 8.8100 8.8200 8.8300 8.8400 8.8500 8.8600 8.8700
8.8800 8.8900 8.9000 8.9100 8.9200 8.9300 8.9400 8.9500
8.9600 8.9700 8.9800 8.9900 9.0000 9.0100 9.0200 9.0300
9.0400 9.0500 9.0600 9.0700 9.0800 9.0900 9.1000 9.1100
9.1200 9.1300 9.1400 9.1500 9.1600 9.1700 9.1800 9.1900
9.2000 9.2100 9.2200 9.2300 9.2400 9.2500 9.2600 9.2700
9.2800 9.2900 9.3000 9.3100 9.3200 9.3300 9.3400 9.3500
9.3600 9.3700 9.3800 9.3900 9.4000 9.4100 9.4200 9.4300
9.4400 9.4500 9.4600 9.4700 9.4800 9.4900 9.5000 9.5100
9.5200 9.5300 9.5400 9.5500 9.5600 9.5700 9.5800 9.5900
9.6000 9.6100 9.6200 9.6300 9.6400 9.6500 9.6600 9.6700
9.6800 9.6900 9.7000 9.7100 9.7200 9.7300 9.7400 9.7500
9.7600 9.7700 9.7800 9.7900 9.8000 9.8100 9.8200 9.8300
9.8400 9.8500 9.8600 9.8700 9.8800 9.8900 9.9000 9.9100
9.9200 9.9300 9.9400 9.9500 9.9600 9.9700 9.9800 9.9900
10.0000 10.0100 10.0200 10.0300 10.0400 10.0500 10.0600 10.0700
10.0800 10.0900 10.1000 10.1100 10.1200 10.1300 10.1400 10.1500
10.1600 10.1700 10.1800 10.1900 10.2000 10.2100 10.2200 10.2300
10.2400 10.2500 10.2600 10.2700 10.2800 10.2900 10.3000 10.3100
10.3200 10.3300 10.3400 10.3500 10.3600 10.3700 10.3800 10.3900
10.4000 10.4100 10.4200 10.4300 10.4400 10.4500 10.4600 10.4700
10.4800 10.4900 10.5000 10.5100 10.5200 10.5300 10.5400 10.5500
10.5600 10.5700 10.5800 10.5900 10.6000 10.6100 10.6200 10.6300
10.6400 10.6500 10.6600 10.6700 10.6800 10.6900 10.7000 10.7100
10.7200 10.7300 10.7400 10.7500 10.7600 10.7700 10.7800 10.7900
10.8000 10.8100 10.8200 10.8300 10.8400 10.8500 10.8600 10.8700
10.8800 10.8900 10.9000 10.9100 10.9200 10.9300 10.9400 10.9500
10.9600 10.9700 10.9800 10.9900 11.0000 11.0100 11.0200 11.0300
11.0400 11.0500 11.0600 11.0700 11.0800 11.0900 11.1000 11.1100
11.1200 11.1300 11.1400 11.1500 11.1600 11.1700 11.1800 11.1900
11.2000 11.2100 11.2200 11.2300 11.2400 11.2500 11.2600 11.2700
11.2800 11.2900 11.3000 11.3100 11.3200 11.3300 11.3400 11.3500
11.3600 11.3700 11.3800 11.3900 11.4000 11.4100 11.4200 11.4300
11.4400 11.4500 11.4600 11.4700 11.4800 11.4900 11.5000 11.5100
11.5200 11.5300 11.5400 11.5500 11.5600 11.5700 11.5800 11.5900
11.6000 11.6100 11.6200 11.6300 11.6400 11.6500 11.6600 11.6700
11.6800 11.6900 11.7000 11.7100 11.7200 11.7300 11.7400 11.7500
11.7600 11.7700 11.7800 11.7900 11.8000 11.8100</PP_R><PP_RAB type="real" size="1182" columns="8">
0.0100 0.0100 0.0100 0.0100 0.0100 0.0100 0.0100 0.0100
0.0100 0.0100 0.0100 0.0100 0.0100 0.0100 0.0100 0.0100
0.0100 0.0100 0.0100 0.0100 0.0100 0.0100 0.0100 0.0100
0.0100 0.0100 0.0100 0.0100 0.0100 0.0100 0.0100 0.0100
0.0100 0.0100 0.0100 0.0100 0.0100 0.0100 0.0100 0.0100
0.0100 0.0100 0.0100 0.0100 0.0100 0.0100 0.0100 0.0100
0.0100 0.0100 0.0100 0.0100 0.0100 0.0100 0.0100 0.0100
0.0100 0.0100 0.0100 0.0100 0.0100 0.0100 0.0100 0.0100
0.0100 0.0100 0.0100 0.0100 0.0100 0.0100 0.0100 0.0100
0.0100 0.0100 0.0100 0.0100 0.0100 0.0100 0.0100 0.0100
0.0100 0.0100 0.0100 0.0100 0.0100 0.0100 0.0100 0.0100
0.0100 0.0100 0.0100 0.0100 0.0100 0.0100 0.0100 0.0100
0.0100 0.0100 0.0100 0.0100 0.0100 0.0100 0.0100 0.0100
0.0100 0.0100 0.0100 0.0100 0.0100 0.0100 0.0100 0.0100
0.0100 0.0100 0.0100 0.0100 0.0100 0.0100 0.0100 0.0100
0.0100 0.0100 0.0100 0.0100 0.0100 0.0100 0.0100 0.0100
0.0100 0.0100 0.0100 0.0100 0.0100 0.0100 0.0100 0.0100
0.0100 0.0100 0.0100 0.0100 0.0100 0.0100 0.0100 0.0100
0.0100 0.0100 0.0100 0.0100 0.0100 0.0100 0.0100 0.0100
0.0100 0.0100 0.0100 0.0100 0.0100 0.0100 0.0100 0.0100
0.0100 0.0100 0.0100 0.0100 0.0100 0.0100 0.0100 0.0100
0.0100 0.0100 0.0100 0.0100 0.0100 0.0100 0.0100 0.0100
0.0100 0.0100 0.0100 0.0100 0.0100 0.0100 0.0100 0.0100
0.0100 0.0100 0.0100 0.0100 0.0100 0.0100 0.0100 0.0100
0.0100 0.0100 0.0100 0.0100 0.0100 0.0100 0.0100 0.0100
0.0100 0.0100 0.0100 0.0100 0.0100 0.0100 0.0100 0.0100
0.0100 0.0100 0.0100 0.0100 0.0100 0.0100 0.0100 0.0100
0.0100 0.0100 0.0100 0.0100 0.0100 0.0100 0.0100 0.0100
0.0100 0.0100 0.0100 0.0100 0.0100 0.0100 0.0100 0.0100
0.0100 0.0100 0.0100 0.0100 0.0100 0.0100 0.0100 0.0100
0.0100 0.0100 0.0100 0.0100 0.0100 0.0100 0.0100 0.0100
0.0100 0.0100 0.0100 0.0100 0.0100 0.0100 0.0100 0.0100
0.0100 0.0100 0.0100 0.0100 0.0100 0.0100 0.0100 0.0100
0.0100 0.0100 0.0100 0.0100 0.0100 0.0100 0.0100 0.0100
0.0100 0.0100 0.0100 0.0100 0.0100 0.0100 0.0100 0.0100
0.0100 0.0100 0.0100 0.0100 0.0100 0.0100 0.0100 0.0100
0.0100 0.0100 0.0100 0.0100 0.0100 0.0100 0.0100 0.0100
0.0100 0.0100 0.0100 0.0100 0.0100 0.0100 0.0100 0.0100
0.0100 0.0100 0.0100 0.0100 0.0100 0.0100 0.0100 0.0100
0.0100 0.0100 0.0100 0.0100 0.0100 0.0100 0.0100 0.0100
0.0100 0.0100 0.0100 0.0100 0.0100 0.0100 0.0100 0.0100
0.0100 0.0100 0.0100 0.0100 0.0100 0.0100 0.0100 0.0100
0.0100 0.0100 0.0100 0.0100 0.0100 0.0100 0.0100 0.0100
0.0100 0.0100 0.0100 0.0100 0.0100 0.0100 0.0100 0.0100
0.0100 0.0100 0.0100 0.0100 0.0100 0.0100 0.0100 0.0100
0.0100 0.0100 0.0100 0.0100 0.0100 0.0100 0.0100 0.0100
0.0100 0.0100 0.0100 0.0100 0.0100 0.0100 0.0100 0.0100
0.0100 0.0100 0.0100 0.0100 0.0100 0.0100 0.0100 0.0100
0.0100 0.0100 0.0100 0.0100 0.0100 0.0100 0.0100 0.0100
0.0100 0.0100 0.0100 0.0100 0.0100 0.0100 0.0100 0.0100
0.0100 0.0100 0.0100 0.0100 0.0100 0.0100 0.0100 0.0100
0.0100 0.0100 0.0100 0.0100 0.0100 0.0100 0.0100 0.0100
0.0100 0.0100 0.0100 0.0100 0.0100 0.0100 0.0100 0.0100
0.0100 0.0100 0.0100 0.0100 0.0100 0.0100 0.0100 0.0100
0.0100 0.0100 0.0100 0.0100 0.0100 0.0100 0.0100 0.0100
0.0100 0.0100 0.0100 0.0100 0.0100 0.0100 0.0100 0.0100
0.0100 0.0100 0.0100 0.0100 0.0100 0.0100 0.0100 0.0100
0.0100 0.0100 0.0100 0.0100 0.0100 0.0100 0.0100 0.0100
0.0100 0.0100 0.0100 0.0100 0.0100 0.0100 0.0100 0.0100
0.0100 0.0100 0.0100 0.0100 0.0100 0.0100 0.0100 0.0100
0.0100 0.0100 0.0100 0.0100 0.0100 0.0100 0.0100 0.0100
0.0100 0.0100 0.0100 0.0100 0.0100 0.0100 0.0100 0.0100
0.0100 0.0100 0.0100 0.0100 0.0100 0.0100 0.0100 0.0100
0.0100 0.0100 0.0100 0.0100 0.0100 0.0100 0.0100 0.0100
0.0100 0.0100 0.0100 0.0100 0.0100 0.0100 0.0100 0.0100
0.0100 0.0100 0.0100 0.0100 0.0100 0.0100 0.0100 0.0100
0.0100 0.0100 0.0100 0.0100 0.0100 0.0100 0.0100 0.0100
0.0100 0.0100 0.0100 0.0100 0.0100 0.0100 0.0100 0.0100
0.0100 0.0100 0.0100 0.0100 0.0100 0.0100 0.0100 0.0100
0.0100 0.0100 0.0100 0.0100 0.0100 0.0100 0.0100 0.0100
0.0100 0.0100 0.0100 0.0100 0.0100 0.0100 0.0100 0.0100
0.0100 0.0100 0.0100 0.0100 0.0100 0.0100 0.0100 0.0100
0.0100 0.0100 0.0100 0.0100 0.0100 0.0100 0.0100 0.0100
0.0100 0.0100 0.0100 0.0100 0.0100 0.0100 0.0100 0.0100
0.0100 0.0100 0.0100 0.0100 0.0100 0.0100 0.0100 0.0100
0.0100 0.0100 0.0100 0.0100 0.0100 0.0100 0.0100 0.0100
0.0100 0.0100 0.0100 0.0100 0.0100 0.0100 0.0100 0.0100
0.0100 0.0100 0.0100 0.0100 0.0100 0.0100 0.0100 0.0100
0.0100 0.0100 0.0100 0.0100 0.0100 0.0100 0.0100 0.0100
0.0100 0.0100 0.0100 0.0100 0.0100 0.0100 0.0100 0.0100
0.0100 0.0100 0.0100 0.0100 0.0100 0.0100 0.0100 0.0100
0.0100 0.0100 0.0100 0.0100 0.0100 0.0100 0.0100 0.0100
0.0100 0.0100 0.0100 0.0100 0.0100 0.0100 0.0100 0.0100
0.0100 0.0100 0.0100 0.0100 0.0100 0.0100 0.0100 0.0100
0.0100 0.0100 0.0100 0.0100 0.0100 0.0100 0.0100 0.0100
0.0100 0.0100 0.0100 0.0100 0.0100 0.0100 0.0100 0.0100
0.0100 0.0100 0.0100 0.0100 0.0100 0.0100 0.0100 0.0100
0.0100 0.0100 0.0100 0.0100 0.0100 0.0100 0.0100 0.0100
0.0100 0.0100 0.0100 0.0100 0.0100 0.0100 0.0100 0.0100
0.0100 0.0100 0.0100 0.0100 0.0100 0.0100 0.0100 0.0100
0.0100 0.0100 0.0100 0.0100 0.0100 0.0100 0.0100 0.0100
0.0100 0.0100 0.0100 0.0100 0.0100 0.0100 0.0100 0.0100
0.0100 0.0100 0.0100 0.0100 0.0100 0.0100 0.0100 0.0100
0.0100 0.0100 0.0100 0.0100 0.0100 0.0100 0.0100 0.0100
0.0100 0.0100 0.0100 0.0100 0.0100 0.0100 0.0100 0.0100
0.0100 0.0100 0.0100 0.0100 0.0100 0.0100 0.0100 0.0100
0.0100 0.0100 0.0100 0.0100 0.0100 0.0100 0.0100 0.0100
0.0100 0.0100 0.0100 0.0100 0.0100 0.0100 0.0100 0.0100
0.0100 0.0100 0.0100 0.0100 0.0100 0.0100 0.0100 0.0100
0.0100 0.0100 0.0100 0.0100 0.0100 0.0100 0.0100 0.0100
0.0100 0.0100 0.0100 0.0100 0.0100 0.0100 0.0100 0.0100
0.0100 0.0100 0.0100 0.0100 0.0100 0.0100 0.0100 0.0100
0.0100 0.0100 0.0100 0.0100 0.0100 0.0100 0.0100 0.0100
0.0100 0.0100 0.0100 0.0100 0.0100 0.0100 0.0100 0.0100
0.0100 0.0100 0.0100 0.0100 0.0100 0.0100 0.0100 0.0100
0.0100 0.0100 0.0100 0.0100 0.0100 0.0100 0.0100 0.0100
0.0100 0.0100 0.0100 0.0100 0.0100 0.0100 0.0100 0.0100
0.0100 0.0100 0.0100 0.0100 0.0100 0.0100 0.0100 0.0100
0.0100 0.0100 0.0100 0.0100 0.0100 0.0100 0.0100 0.0100
0.0100 0.0100 0.0100 0.0100 0.0100 0.0100 0.0100 0.0100
0.0100 0.0100 0.0100 0.0100 0.0100 0.0100 0.0100 0.0100
0.0100 0.0100 0.0100 0.0100 0.0100 0.0100 0.0100 0.0100
0.0100 0.0100 0.0100 0.0100 0.0100 0.0100 0.0100 0.0100
0.0100 0.0100 0.0100 0.0100 0.0100 0.0100 0.0100 0.0100
0.0100 0.0100 0.0100 0.0100 0.0100 0.0100 0.0100 0.0100
0.0100 0.0100 0.0100 0.0100 0.0100 0.0100 0.0100 0.0100
0.0100 0.0100 0.0100 0.0100 0.0100 0.0100 0.0100 0.0100
0.0100 0.0100 0.0100 0.0100 0.0100 0.0100 0.0100 0.0100
0.0100 0.0100 0.0100 0.0100 0.0100 0.0100 0.0100 0.0100
0.0100 0.0100 0.0100 0.0100 0.0100 0.0100 0.0100 0.0100
0.0100 0.0100 0.0100 0.0100 0.0100 0.0100 0.0100 0.0100
0.0100 0.0100 0.0100 0.0100 0.0100 0.0100 0.0100 0.0100
0.0100 0.0100 0.0100 0.0100 0.0100 0.0100 0.0100 0.0100
0.0100 0.0100 0.0100 0.0100 0.0100 0.0100 0.0100 0.0100
0.0100 0.0100 0.0100 0.0100 0.0100 0.0100 0.0100 0.0100
0.0100 0.0100 0.0100 0.0100 0.0100 0.0100 0.0100 0.0100
0.0100 0.0100 0.0100 0.0100 0.0100 0.0100 0.0100 0.0100
0.0100 0.0100 0.0100 0.0100 0.0100 0.0100 0.0100 0.0100
0.0100 0.0100 0.0100 0.0100 0.0100 0.0100 0.0100 0.0100
0.0100 0.0100 0.0100 0.0100 0.0100 0.0100 0.0100 0.0100
0.0100 0.0100 0.0100 0.0100 0.0100 0.0100 0.0100 0.0100
0.0100 0.0100 0.0100 0.0100 0.0100 0.0100 0.0100 0.0100
0.0100 0.0100 0.0100 0.0100 0.0100 0.0100 0.0100 0.0100
0.0100 0.0100 0.0100 0.0100 0.0100 0.0100 0.0100 0.0100
0.0100 0.0100 0.0100 0.0100 0.0100 0.0100 0.0100 0.0100
0.0100 0.0100 0.0100 0.0100 0.0100 0.0100 0.0100 0.0100
0.0100 0.0100 0.0100 0.0100 0.0100 0.0100 0.0100 0.0100
0.0100 0.0100 0.0100 0.0100 0.0100 0.0100 0.0100 0.0100
0.0100 0.0100 0.0100 0.0100 0.0100 0.0100 0.0100 0.0100
0.0100 0.0100 0.0100 0.0100 0.0100 0.0100 0.0100 0.0100
0.0100 0.0100 0.0100 0.0100 0.0100 0.0100 0.0100 0.0100
0.0100 0.0100 0.0100 0.0100 0.0100 0.0100 0.0100 0.0100
0.0100 0.0100 0.0100 0.0100 0.0100 0.0100 0.0100 0.0100
0.0100 0.0100 0.0100 0.0100 0.0100 0.0100 0.0100 0.0100
0.0100 0.0100 0.0100 0.0100 0.0100 0.0100 0.0100 0.0100
0.0100 0.0100 0.0100 0.0100 0.0100 0.0100 0.0100 0.0100
0.0100 0.0100 0.0100 0.0100 0.0100 0.0100 0.0100 0.0100
0.0100 0.0100 0.0100 0.0100 0.0100 0.0100</PP_RAB></PP_MESH><PP_LOCAL type="real" size="1182" columns="4">
-3.7185942739E+01 -3.7185800139E+01 -3.7185371843E+01 -3.7184656396E+01
-3.7183651343E+01 -3.7182353183E+01 -3.7180757310E+01 -3.7178857939E+01
-3.7176648012E+01 -3.7174119099E+01 -3.7171261279E+01 -3.7168063021E+01
-3.7164511048E+01 -3.7160590202E+01 -3.7156283306E+01 -3.7151571022E+01
-3.7146431714E+01 -3.7140841310E+01 -3.7134773182E+01 -3.7128198020E+01
-3.7121083732E+01 -3.7113395345E+01 -3.7105094936E+01 -3.7096141563E+01
-3.7086491234E+01 -3.7076096886E+01 -3.7064908388E+01 -3.7052872571E+01
-3.7039933283E+01 -3.7026031462E+01 -3.7011105245E+01 -3.6995090095E+01
-3.6977918957E+01 -3.6959522438E+01 -3.6939829009E+01 -3.6918765234E+01
-3.6896256015E+01 -3.6872224863E+01 -3.6846594184E+01 -3.6819285579E+01
-3.6790220162E+01 -3.6759318883E+01 -3.6726502872E+01 -3.6691693774E+01
-3.6654814098E+01 -3.6615787567E+01 -3.6574539463E+01 -3.6530996969E+01
-3.6485089506E+01 -3.6436749067E+01 -3.6385910528E+01 -3.6332511961E+01
-3.6276494923E+01 -3.6217804738E+01 -3.6156390756E+01 -3.6092206595E+01
-3.6025210370E+01 -3.5955364896E+01 -3.5882637877E+01 -3.5807002065E+01
-3.5728435411E+01 -3.5646921183E+01 -3.5562448066E+01 -3.5475010243E+01
-3.5384607449E+01 -3.5291245002E+01 -3.5194933815E+01 -3.5095690381E+01
-3.4993536735E+01 -3.4888500394E+01 -3.4780614268E+01 -3.4669916556E+01
-3.4556450606E+01 -3.4440264765E+01 -3.4321412193E+01 -3.4199950666E+01
-3.4075942345E+01 -3.3949453536E+01 -3.3820554425E+01 -3.3689318794E+01
-3.3555823721E+01 -3.3420149270E+01 -3.3282378166E+01 -3.3142595456E+01
-3.3000888168E+01 -3.2857344962E+01 -3.2712055773E+01 -3.2565111464E+01
-3.2416603466E+01 -3.2266623427E+01 -3.2115262873E+01 -3.1962612859E+01
-3.1808763641E+01 -3.1653804356E+01 -3.1497822705E+01 -3.1340904659E+01
-3.1183134169E+01 -3.1024592904E+01 -3.0865359992E+01 -3.0705511792E+01
-3.0545121682E+01 -3.0384259874E+01 -3.0222993254E+01 -3.0061385252E+01
-2.9899495749E+01 -2.9737381015E+01 -2.9575093689E+01 -2.9412682804E+01
-2.9250193854E+01 -2.9087668902E+01 -2.8925146744E+01 -2.8762663102E+01
-2.8600250873E+01 -2.8437940393E+01 -2.8275759743E+01 -2.8113735055E+01
-2.7951890829E+01 -2.7790250231E+01 -2.7628835364E+01 -2.7467667499E+01
-2.7306767236E+01 -2.7146154607E+01 -2.6985849085E+01 -2.6825869524E+01
-2.6666233999E+01 -2.6506959589E+01 -2.6348062091E+01 -2.6189555713E+01
-2.6031452764E+01 -2.5873763385E+01 -2.5716495361E+01 -2.5559654066E+01
-2.5403242563E+01 -2.5247261909E+01 -2.5091711685E+01 -2.4936590724E+01
-2.4781898070E+01 -2.4627634091E+01 -2.4473801701E+01 -2.4320407623E+01
-2.4167463595E+01 -2.4014987435E+01 -2.3863003862E+01 -2.3711545033E+01
-2.3560650679E+01 -2.3410367904E+01 -2.3260750545E+01 -2.3111858219E+01
-2.2963755059E+01 -2.2816508248E+01 -2.2670186426E+01 -2.2524858098E+01
-2.2380590078E+01 -2.2237446130E+01 -2.2095485772E+01 -2.1954763366E+01
-2.1815327454E+01 -2.1677220368E+01 -2.1540478083E+01 -2.1405130282E+01
-2.1271200599E+01 -2.1138707002E+01 -2.1007662245E+01 -2.0878074411E+01
-2.0749947430E+01 -2.0623281636E+01 -2.0498074254E+01 -2.0374319883E+01
-2.0252010893E+01 -2.0131137803E+01 -2.0011689571E+01 -1.9893653849E+01
-1.9777017184E+01 -1.9661765167E+01 -1.9547882551E+01 -1.9435353345E+01
-1.9324160841E+01 -1.9214287604E+01 -1.9105715586E+01 -1.8998425953E+01
-1.8892399332E+01 -1.8787616147E+01 -1.8684056057E+01 -1.8581698105E+01
-1.8480519801E+01 -1.8380494382E+01 -1.8281589946E+01 -1.8183772573E+01
-1.8087006907E+01 -1.7991260190E+01 -1.7896509249E+01 -1.7802736207E+01
-1.7709926974E+01 -1.7618069763E+01 -1.7527152185E+01 -1.7437159324E+01
-1.7348076443E+01 -1.7259891096E+01 -1.7172591365E+01 -1.7086166735E+01
-1.7000607374E+01 -1.6915902999E+01 -1.6832042143E+01 -1.6749013044E+01
-1.6666803887E+01 -1.6585402789E+01 -1.6504798282E+01 -1.6424979361E+01
-1.6345935243E+01 -1.6267655146E+01 -1.6190128451E+01 -1.6113344582E+01
-1.6037293026E+01 -1.5961963370E+01 -1.5887345396E+01 -1.5813428998E+01
-1.5740204176E+01 -1.5667661036E+01 -1.5595789807E+01 -1.5524580848E+01
-1.5454024649E+01 -1.5384111831E+01 -1.5314833155E+01 -1.5246179525E+01
-1.5178141991E+01 -1.5110711756E+01 -1.5043880178E+01 -1.4977638776E+01
-1.4911979231E+01 -1.4846893391E+01 -1.4782373270E+01 -1.4718411054E+01
-1.4654999099E+01 -1.4592129932E+01 -1.4529796251E+01 -1.4467990924E+01
-1.4406706990E+01 -1.4345937650E+01 -1.4285676272E+01 -1.4225916381E+01
-1.4166651659E+01 -1.4107875940E+01 -1.4049583201E+01 -1.3991767564E+01
-1.3934423282E+01 -1.3877544740E+01 -1.3821126443E+01 -1.3765163012E+01
-1.3709649181E+01 -1.3654579784E+01 -1.3599949752E+01 -1.3545754107E+01
-1.3491987954E+01 -1.3438646477E+01 -1.3385724933E+01 -1.3333218644E+01
-1.3281122994E+01 -1.3229433427E+01 -1.3178145436E+01 -1.3127254567E+01
-1.3076756409E+01 -1.3026646595E+01 -1.2976920800E+01 -1.2927574736E+01
-1.2878604153E+01 -1.2830004838E+01 -1.2781772614E+01 -1.2733903339E+01
-1.2686392907E+01 -1.2639237251E+01 -1.2592432339E+01 -1.2545974180E+01
-1.2499858821E+01 -1.2454082354E+01 -1.2408640913E+01 -1.2363530679E+01
-1.2318747876E+01 -1.2274288783E+01 -1.2230149738E+01 -1.2186327135E+01
-1.2142817433E+01 -1.2099617036E+01 -1.2056722470E+01 -1.2014130207E+01
-1.1971837221E+01 -1.1929840472E+01 -1.1888136976E+01 -1.1846723499E+01
-1.1805596465E+01 -1.1764752374E+01 -1.1724187862E+01 -1.1683899363E+01
-1.1643883675E+01 -1.1604137622E+01 -1.1564659104E+01 -1.1525446798E+01
-1.1486499325E+01 -1.1447815613E+01 -1.1409393336E+01 -1.1371230270E+01
-1.1333323987E+01 -1.1295671640E+01 -1.1258270036E+01 -1.1221116011E+01
-1.1184206130E+01 -1.1147538007E+01 -1.1111109221E+01 -1.1074917507E+01
-1.1038960712E+01 -1.1003236508E+01 -1.0967742710E+01 -1.0932477175E+01
-1.0897437733E+01 -1.0862622202E+01 -1.0828028428E+01 -1.0793654248E+01
-1.0759497594E+01 -1.0725556415E+01 -1.0691828679E+01 -1.0658312389E+01
-1.0625005558E+01 -1.0591906228E+01 -1.0559012467E+01 -1.0526322367E+01
-1.0493834041E+01 -1.0461545628E+01 -1.0429455289E+01 -1.0397561207E+01
-1.0365861588E+01 -1.0334354659E+01 -1.0303038668E+01 -1.0271911886E+01
-1.0240972602E+01 -1.0210219130E+01 -1.0179649799E+01 -1.0149262961E+01
-1.0119056988E+01 -1.0089030269E+01 -1.0059181214E+01 -1.0029508251E+01
-1.0000009826E+01 -9.9706844050E+00 -9.9415304696E+00 -9.9125465206E+00
-9.8837310759E+00 -9.8550826705E+00 -9.8265998563E+00 -9.7982812019E+00
-9.7701252924E+00 -9.7421307291E+00 -9.7142961292E+00 -9.6866201258E+00
-9.6591013673E+00 -9.6317385177E+00 -9.6045302558E+00 -9.5774752754E+00
-9.5505722850E+00 -9.5238200076E+00 -9.4972171804E+00 -9.4707625546E+00
-9.4444548954E+00 -9.4182929816E+00 -9.3922756054E+00 -9.3664015726E+00
-9.3406697018E+00 -9.3150788246E+00 -9.2896277856E+00 -9.2643154417E+00
-9.2391406623E+00 -9.2141023293E+00 -9.1891993362E+00 -9.1644305889E+00
-9.1397950049E+00 -9.1152915130E+00 -9.0909190540E+00 -9.0666765796E+00
-9.0425630528E+00 -9.0185774475E+00 -8.9947187486E+00 -8.9709859515E+00
-8.9473780625E+00 -8.9238940979E+00 -8.9005330847E+00 -8.8772940599E+00
-8.8541760705E+00 -8.8311781733E+00 -8.8082994351E+00 -8.7855389322E+00
-8.7628957505E+00 -8.7403689852E+00 -8.7179577408E+00 -8.6956611311E+00
-8.6734782788E+00 -8.6514083155E+00 -8.6294503817E+00 -8.6076036266E+00
-8.5858672080E+00 -8.5642402920E+00 -8.5427220535E+00 -8.5213116752E+00
-8.5000083482E+00 -8.4788112717E+00 -8.4577196528E+00 -8.4367327065E+00
-8.4158496555E+00 -8.3950697303E+00 -8.3743921688E+00 -8.3538162166E+00
-8.3333411266E+00 -8.3129661590E+00 -8.2926905811E+00 -8.2725136676E+00
-8.2524347000E+00 -8.2324529668E+00 -8.2125677636E+00 -8.1927783924E+00
-8.1730841623E+00 -8.1534843888E+00 -8.1339783939E+00 -8.1145655063E+00
-8.0952450609E+00 -8.0760163990E+00 -8.0568788681E+00 -8.0378318219E+00
-8.0188746203E+00 -8.0000066290E+00 -7.9812272197E+00 -7.9625357702E+00
-7.9439316640E+00 -7.9254142902E+00 -7.9069830438E+00 -7.8886373252E+00
-7.8703765406E+00 -7.8522001015E+00 -7.8341074249E+00 -7.8160979331E+00
-7.7981710537E+00 -7.7803262197E+00 -7.7625628691E+00 -7.7448804450E+00
-7.7272783958E+00 -7.7097561746E+00 -7.6923132396E+00 -7.6749490540E+00
-7.6576630856E+00 -7.6404548072E+00 -7.6233236962E+00 -7.6062692346E+00
-7.5892909093E+00 -7.5723882115E+00 -7.5555606370E+00 -7.5388076862E+00
-7.5221288638E+00 -7.5055236788E+00 -7.4889916447E+00 -7.4725322791E+00
-7.4561451041E+00 -7.4398296456E+00 -7.4235854340E+00 -7.4074120036E+00
-7.3913088928E+00 -7.3752756440E+00 -7.3593118034E+00 -7.3434169215E+00
-7.3275905524E+00 -7.3118322540E+00 -7.2961415881E+00 -7.2805181204E+00
-7.2649614199E+00 -7.2494710597E+00 -7.2340466162E+00 -7.2186876697E+00
-7.2033938039E+00 -7.1881646059E+00 -7.1729996666E+00 -7.1578985800E+00
-7.1428609437E+00 -7.1278863588E+00 -7.1129744293E+00 -7.0981247631E+00
-7.0833369708E+00 -7.0686106666E+00 -7.0539454678E+00 -7.0393409949E+00
-7.0247968715E+00 -7.0103127242E+00 -6.9958881828E+00 -6.9815228803E+00
-6.9672164523E+00 -6.9529685377E+00 -6.9387787783E+00 -6.9246468187E+00
-6.9105723065E+00 -6.8965548922E+00 -6.8825942289E+00 -6.8686899727E+00
-6.8548417825E+00 -6.8410493198E+00 -6.8273122489E+00 -6.8136302368E+00
-6.8000029531E+00 -6.7864300702E+00 -6.7729112629E+00 -6.7594462087E+00
-6.7460345877E+00 -6.7326760823E+00 -6.7193703778E+00 -6.7061171617E+00
-6.6929161239E+00 -6.6797669570E+00 -6.6666693558E+00 -6.6536230176E+00
-6.6406276421E+00 -6.6276829312E+00 -6.6147885891E+00 -6.6019443225E+00
-6.5891498403E+00 -6.5764048535E+00 -6.5637090754E+00 -6.5510622218E+00
-6.5384640102E+00 -6.5259141606E+00 -6.5134123951E+00 -6.5009584378E+00
-6.4885520150E+00 -6.4761928551E+00 -6.4638806885E+00 -6.4516152478E+00
-6.4393962673E+00 -6.4272234837E+00 -6.4150966354E+00 -6.4030154629E+00
-6.3909797087E+00 -6.3789891170E+00 -6.3670434342E+00 -6.3551424085E+00
-6.3432857898E+00 -6.3314733302E+00 -6.3197047833E+00 -6.3079799047E+00
-6.2962984519E+00 -6.2846601840E+00 -6.2730648620E+00 -6.2615122486E+00
-6.2500021083E+00 -6.2385342073E+00 -6.2271083135E+00 -6.2157241965E+00
-6.2043816276E+00 -6.1930803797E+00 -6.1818202275E+00 -6.1706009472E+00
-6.1594223167E+00 -6.1482841154E+00 -6.1371861244E+00 -6.1261281264E+00
-6.1151099055E+00 -6.1041312476E+00 -6.0931919399E+00 -6.0822917712E+00
-6.0714305318E+00 -6.0606080136E+00 -6.0498240099E+00 -6.0390783154E+00
-6.0283707263E+00 -6.0177010404E+00 -6.0070690567E+00 -5.9964745757E+00
-5.9859173994E+00 -5.9753973310E+00 -5.9649141753E+00 -5.9544677383E+00
-5.9440578274E+00 -5.9336842514E+00 -5.9233468204E+00 -5.9130453458E+00
-5.9027796403E+00 -5.8925495180E+00 -5.8823547940E+00 -5.8721952852E+00
-5.8620708092E+00 -5.8519811852E+00 -5.8419262335E+00 -5.8319057758E+00
-5.8219196347E+00 -5.8119676344E+00 -5.8020496001E+00 -5.7921653581E+00
-5.7823147360E+00 -5.7724975627E+00 -5.7627136679E+00 -5.7529628829E+00
-5.7432450397E+00 -5.7335599718E+00 -5.7239075136E+00 -5.7142875007E+00
-5.7046997697E+00 -5.6951441585E+00 -5.6856205059E+00 -5.6761286519E+00
-5.6666684374E+00 -5.6572397045E+00 -5.6478422963E+00 -5.6384760570E+00
-5.6291408318E+00 -5.6198364669E+00 -5.6105628094E+00 -5.6013197077E+00
-5.5921070110E+00 -5.5829245694E+00 -5.5737722342E+00 -5.5646498575E+00
-5.5555572926E+00 -5.5464943935E+00 -5.5374610152E+00 -5.5284570137E+00
-5.5194822461E+00 -5.5105365700E+00 -5.5016198444E+00 -5.4927319289E+00
-5.4838726841E+00 -5.4750419714E+00 -5.4662396533E+00 -5.4574655931E+00