<UPF version="2.0.1"><PP_INFO>This pseudopotential file has been produced using the code
ONCVPSP (Optimized Norm-Conservinng Vanderbilt PSeudopotential)
scalar-relativistic version 3.3.0 08/16/2017 by D. R. Hamann
The code is available through a link at URL www.mat-simresearch.com.
Documentation with the package provides a full discription of the
input data below.
While it is not required under the terms of the GNU GPL, it is
suggested that you cite D. R. Hamann, Phys. Rev. B 88, 085117 (2013)
in any publication using these pseudopotentials.<PP_INPUTFILE>
# ATOM AND REFERENCE CONFIGURATION
# atsym z nc nv iexc psfile
N 7.00 1 2 -116133 upf
#
# n l f energy (Ha)
1 0 2.00
2 0 2.00
2 1 3.00
#
# PSEUDOPOTENTIAL AND OPTIMIZATION
# lmax
1
#
# l, rc, ep, ncon, nbas, qcut
0 1.20000 -0.67824 4 8 8.80000
1 1.35000 -0.25858 4 8 9.00000
#
# LOCAL POTENTIAL
# lloc, lpopt, rc(5), dvloc0
4 5 1.20000 0.00000
#
# VANDERBILT-KLEINMAN-BYLANDER PROJECTORs
# l, nproj, debl
0 2 1.00000
1 2 1.00000
#
# MODEL CORE CHARGE
# icmod, fcfact, rcfact
3 4.00000 1.50000
#
# LOG DERIVATIVE ANALYSIS
# epsh1, epsh2, depsh
-12.00 12.00 0.02
#
# OUTPUT GRID
# rlmax, drl
6.00 0.01
#
# TEST CONFIGURATIONS
# ncnf
0
# nvcnf
# n l f</PP_INPUTFILE></PP_INFO><PP_HEADER generated="Generated using ONCVPSP code by D. R. Hamann" author="anonymous" date="180301" comment="" element="N " pseudo_type="NC" relativistic="scalar" is_ultrasoft="F" is_paw="F" is_coulomb="F" has_so="F" has_wfc="F" has_gipaw="F" core_correction="T" functional="PBESOL" z_valence="    5.00" total_psenergy="  -1.92698000177E+01" rho_cutoff="   1.05700000000E+01" l_max="1" l_local="-1" mesh_size="  1058" number_of_wfc="2" number_of_proj="4"/><PP_MESH><PP_R type="real" size="1058" columns="8">
0.0000 0.0100 0.0200 0.0300 0.0400 0.0500 0.0600 0.0700
0.0800 0.0900 0.1000 0.1100 0.1200 0.1300 0.1400 0.1500
0.1600 0.1700 0.1800 0.1900 0.2000 0.2100 0.2200 0.2300
0.2400 0.2500 0.2600 0.2700 0.2800 0.2900 0.3000 0.3100
0.3200 0.3300 0.3400 0.3500 0.3600 0.3700 0.3800 0.3900
0.4000 0.4100 0.4200 0.4300 0.4400 0.4500 0.4600 0.4700
0.4800 0.4900 0.5000 0.5100 0.5200 0.5300 0.5400 0.5500
0.5600 0.5700 0.5800 0.5900 0.6000 0.6100 0.6200 0.6300
0.6400 0.6500 0.6600 0.6700 0.6800 0.6900 0.7000 0.7100
0.7200 0.7300 0.7400 0.7500 0.7600 0.7700 0.7800 0.7900
0.8000 0.8100 0.8200 0.8300 0.8400 0.8500 0.8600 0.8700
0.8800 0.8900 0.9000 0.9100 0.9200 0.9300 0.9400 0.9500
0.9600 0.9700 0.9800 0.9900 1.0000 1.0100 1.0200 1.0300
1.0400 1.0500 1.0600 1.0700 1.0800 1.0900 1.1000 1.1100
1.1200 1.1300 1.1400 1.1500 1.1600 1.1700 1.1800 1.1900
1.2000 1.2100 1.2200 1.2300 1.2400 1.2500 1.2600 1.2700
1.2800 1.2900 1.3000 1.3100 1.3200 1.3300 1.3400 1.3500
1.3600 1.3700 1.3800 1.3900 1.4000 1.4100 1.4200 1.4300
1.4400 1.4500 1.4600 1.4700 1.4800 1.4900 1.5000 1.5100
1.5200 1.5300 1.5400 1.5500 1.5600 1.5700 1.5800 1.5900
1.6000 1.6100 1.6200 1.6300 1.6400 1.6500 1.6600 1.6700
1.6800 1.6900 1.7000 1.7100 1.7200 1.7300 1.7400 1.7500
1.7600 1.7700 1.7800 1.7900 1.8000 1.8100 1.8200 1.8300
1.8400 1.8500 1.8600 1.8700 1.8800 1.8900 1.9000 1.9100
1.9200 1.9300 1.9400 1.9500 1.9600 1.9700 1.9800 1.9900
2.0000 2.0100 2.0200 2.0300 2.0400 2.0500 2.0600 2.0700
2.0800 2.0900 2.1000 2.1100 2.1200 2.1300 2.1400 2.1500
2.1600 2.1700 2.1800 2.1900 2.2000 2.2100 2.2200 2.2300
2.2400 2.2500 2.2600 2.2700 2.2800 2.2900 2.3000 2.3100
2.3200 2.3300 2.3400 2.3500 2.3600 2.3700 2.3800 2.3900
2.4000 2.4100 2.4200 2.4300 2.4400 2.4500 2.4600 2.4700
2.4800 2.4900 2.5000 2.5100 2.5200 2.5300 2.5400 2.5500
2.5600 2.5700 2.5800 2.5900 2.6000 2.6100 2.6200 2.6300
2.6400 2.6500 2.6600 2.6700 2.6800 2.6900 2.7000 2.7100
2.7200 2.7300 2.7400 2.7500 2.7600 2.7700 2.7800 2.7900
2.8000 2.8100 2.8200 2.8300 2.8400 2.8500 2.8600 2.8700
2.8800 2.8900 2.9000 2.9100 2.9200 2.9300 2.9400 2.9500
2.9600 2.9700 2.9800 2.9900 3.0000 3.0100 3.0200 3.0300
3.0400 3.0500 3.0600 3.0700 3.0800 3.0900 3.1000 3.1100
3.1200 3.1300 3.1400 3.1500 3.1600 3.1700 3.1800 3.1900
3.2000 3.2100 3.2200 3.2300 3.2400 3.2500 3.2600 3.2700
3.2800 3.2900 3.3000 3.3100 3.3200 3.3300 3.3400 3.3500
3.3600 3.3700 3.3800 3.3900 3.4000 3.4100 3.4200 3.4300
3.4400 3.4500 3.4600 3.4700 3.4800 3.4900 3.5000 3.5100
3.5200 3.5300 3.5400 3.5500 3.5600 3.5700 3.5800 3.5900
3.6000 3.6100 3.6200 3.6300 3.6400 3.6500 3.6600 3.6700
3.6800 3.6900 3.7000 3.7100 3.7200 3.7300 3.7400 3.7500
3.7600 3.7700 3.7800 3.7900 3.8000 3.8100 3.8200 3.8300
3.8400 3.8500 3.8600 3.8700 3.8800 3.8900 3.9000 3.9100
3.9200 3.9300 3.9400 3.9500 3.9600 3.9700 3.9800 3.9900
4.0000 4.0100 4.0200 4.0300 4.0400 4.0500 4.0600 4.0700
4.0800 4.0900 4.1000 4.1100 4.1200 4.1300 4.1400 4.1500
4.1600 4.1700 4.1800 4.1900 4.2000 4.2100 4.2200 4.2300
4.2400 4.2500 4.2600 4.2700 4.2800 4.2900 4.3000 4.3100
4.3200 4.3300 4.3400 4.3500 4.3600 4.3700 4.3800 4.3900
4.4000 4.4100 4.4200 4.4300 4.4400 4.4500 4.4600 4.4700
4.4800 4.4900 4.5000 4.5100 4.5200 4.5300 4.5400 4.5500
4.5600 4.5700 4.5800 4.5900 4.6000 4.6100 4.6200 4.6300
4.6400 4.6500 4.6600 4.6700 4.6800 4.6900 4.7000 4.7100
4.7200 4.7300 4.7400 4.7500 4.7600 4.7700 4.7800 4.7900
4.8000 4.8100 4.8200 4.8300 4.8400 4.8500 4.8600 4.8700
4.8800 4.8900 4.9000 4.9100 4.9200 4.9300 4.9400 4.9500
4.9600 4.9700 4.9800 4.9900 5.0000 5.0100 5.0200 5.0300
5.0400 5.0500 5.0600 5.0700 5.0800 5.0900 5.1000 5.1100
5.1200 5.1300 5.1400 5.1500 5.1600 5.1700 5.1800 5.1900
5.2000 5.2100 5.2200 5.2300 5.2400 5.2500 5.2600 5.2700
5.2800 5.2900 5.3000 5.3100 5.3200 5.3300 5.3400 5.3500
5.3600 5.3700 5.3800 5.3900 5.4000 5.4100 5.4200 5.4300
5.4400 5.4500 5.4600 5.4700 5.4800 5.4900 5.5000 5.5100
5.5200 5.5300 5.5400 5.5500 5.5600 5.5700 5.5800 5.5900
5.6000 5.6100 5.6200 5.6300 5.6400 5.6500 5.6600 5.6700
5.6800 5.6900 5.7000 5.7100 5.7200 5.7300 5.7400 5.7500
5.7600 5.7700 5.7800 5.7900 5.8000 5.8100 5.8200 5.8300
5.8400 5.8500 5.8600 5.8700 5.8800 5.8900 5.9000 5.9100
5.9200 5.9300 5.9400 5.9500 5.9600 5.9700 5.9800 5.9900
6.0000 6.0100 6.0200 6.0300 6.0400 6.0500 6.0600 6.0700
6.0800 6.0900 6.1000 6.1100 6.1200 6.1300 6.1400 6.1500
6.1600 6.1700 6.1800 6.1900 6.2000 6.2100 6.2200 6.2300
6.2400 6.2500 6.2600 6.2700 6.2800 6.2900 6.3000 6.3100
6.3200 6.3300 6.3400 6.3500 6.3600 6.3700 6.3800 6.3900
6.4000 6.4100 6.4200 6.4300 6.4400 6.4500 6.4600 6.4700
6.4800 6.4900 6.5000 6.5100 6.5200 6.5300 6.5400 6.5500
6.5600 6.5700 6.5800 6.5900 6.6000 6.6100 6.6200 6.6300
6.6400 6.6500 6.6600 6.6700 6.6800 6.6900 6.7000 6.7100
6.7200 6.7300 6.7400 6.7500 6.7600 6.7700 6.7800 6.7900
6.8000 6.8100 6.8200 6.8300 6.8400 6.8500 6.8600 6.8700
6.8800 6.8900 6.9000 6.9100 6.9200 6.9300 6.9400 6.9500
6.9600 6.9700 6.9800 6.9900 7.0000 7.0100 7.0200 7.0300
7.0400 7.0500 7.0600 7.0700 7.0800 7.0900 7.1000 7.1100
7.1200 7.1300 7.1400 7.1500 7.1600 7.1700 7.1800 7.1900
7.2000 7.2100 7.2200 7.2300 7.2400 7.2500 7.2600 7.2700
7.2800 7.2900 7.3000 7.3100 7.3200 7.3300 7.3400 7.3500
7.3600 7.3700 7.3800 7.3900 7.4000 7.4100 7.4200 7.4300
7.4400 7.4500 7.4600 7.4700 7.4800 7.4900 7.5000 7.5100
7.5200 7.5300 7.5400 7.5500 7.5600 7.5700 7.5800 7.5900
7.6000 7.6100 7.6200 7.6300 7.6400 7.6500 7.6600 7.6700
7.6800 7.6900 7.7000 7.7100 7.7200 7.7300 7.7400 7.7500
7.7600 7.7700 7.7800 7.7900 7.8000 7.8100 7.8200 7.8300
7.8400 7.8500 7.8600 7.8700 7.8800 7.8900 7.9000 7.9100
7.9200 7.9300 7.9400 7.9500 7.9600 7.9700 7.9800 7.9900
8.0000 8.0100 8.0200 8.0300 8.0400 8.0500 8.0600 8.0700
8.0800 8.0900 8.1000 8.1100 8.1200 8.1300 8.1400 8.1500
8.1600 8.1700 8.1800 8.1900 8.2000 8.2100 8.2200 8.2300
8.2400 8.2500 8.2600 8.2700 8.2800 8.2900 8.3000 8.3100
8.3200 8.3300 8.3400 8.3500 8.3600 8.3700 8.3800 8.3900
8.4000 8.4100 8.4200 8.4300 8.4400 8.4500 8.4600 8.4700
8.4800 8.4900 8.5000 8.5100 8.5200 8.5300 8.5400 8.5500
8.5600 8.5700 8.5800 8.5900 8.6000 8.6100 8.6200 8.6300
8.6400 8.6500 8.6600 8.6700 8.6800 8.6900 8.7000 8.7100
8.7200 8.7300 8.7400 8.7500 8.7600 8.7700 8.7800 8.7900
8.8000 8.8100 8.8200 8.8300 8.8400 8.8500 8.8600 8.8700
8.8800 8.8900 8.9000 8.9100 8.9200 8.9300 8.9400 8.9500
8.9600 8.9700 8.9800 8.9900 9.0000 9.0100 9.0200 9.0300
9.0400 9.0500 9.0600 9.0700 9.0800 9.0900 9.1000 9.1100
9.1200 9.1300 9.1400 9.1500 9.1600 9.1700 9.1800 9.1900
9.2000 9.2100 9.2200 9.2300 9.2400 9.2500 9.2600 9.2700
9.2800 9.2900 9.3000 9.3100 9.3200 9.3300 9.3400 9.3500
9.3600 9.3700 9.3800 9.3900 9.4000 9.4100 9.4200 9.4300
9.4400 9.4500 9.4600 9.4700 9.4800 9.4900 9.5000 9.5100
9.5200 9.5300 9.5400 9.5500 9.5600 9.5700 9.5800 9.5900
9.6000 9.6100 9.6200 9.6300 9.6400 9.6500 9.6600 9.6700
9.6800 9.6900 9.7000 9.7100 9.7200 9.7300 9.7400 9.7500
9.7600 9.7700 9.7800 9.7900 9.8000 9.8100 9.8200 9.8300
9.8400 9.8500 9.8600 9.8700 9.8800 9.8900 9.9000 9.9100
9.9200 9.9300 9.9400 9.9500 9.9600 9.9700 9.9800 9.9900
10.0000 10.0100 10.0200 10.0300 10.0400 10.0500 10.0600 10.0700
10.0800 10.0900 10.1000 10.1100 10.1200 10.1300 10.1400 10.1500
10.1600 10.1700 10.1800 10.1900 10.2000 10.2100 10.2200 10.2300
10.2400 10.2500 10.2600 10.2700 10.2800 10.2900 10.3000 10.3100
10.3200 10.3300 10.3400 10.3500 10.3600 10.3700 10.3800 10.3900
10.4000 10.4100 10.4200 10.4300 10.4400 10.4500 10.4600 10.4700
10.4800 10.4900 10.5000 10.5100 10.5200 10.5300 10.5400 10.5500
10.5600 10.5700</PP_R><PP_RAB type="real" size="1058" columns="8">
0.0100 0.0100 0.0100 0.0100 0.0100 0.0100 0.0100 0.0100
0.0100 0.0100 0.0100 0.0100 0.0100 0.0100 0.0100 0.0100
0.0100 0.0100 0.0100 0.0100 0.0100 0.0100 0.0100 0.0100
0.0100 0.0100 0.0100 0.0100 0.0100 0.0100 0.0100 0.0100
0.0100 0.0100 0.0100 0.0100 0.0100 0.0100 0.0100 0.0100
0.0100 0.0100 0.0100 0.0100 0.0100 0.0100 0.0100 0.0100
0.0100 0.0100 0.0100 0.0100 0.0100 0.0100 0.0100 0.0100
0.0100 0.0100 0.0100 0.0100 0.0100 0.0100 0.0100 0.0100
0.0100 0.0100 0.0100 0.0100 0.0100 0.0100 0.0100 0.0100
0.0100 0.0100 0.0100 0.0100 0.0100 0.0100 0.0100 0.0100
0.0100 0.0100 0.0100 0.0100 0.0100 0.0100 0.0100 0.0100
0.0100 0.0100 0.0100 0.0100 0.0100 0.0100 0.0100 0.0100
0.0100 0.0100 0.0100 0.0100 0.0100 0.0100 0.0100 0.0100
0.0100 0.0100 0.0100 0.0100 0.0100 0.0100 0.0100 0.0100
0.0100 0.0100 0.0100 0.0100 0.0100 0.0100 0.0100 0.0100
0.0100 0.0100 0.0100 0.0100 0.0100 0.0100 0.0100 0.0100
0.0100 0.0100 0.0100 0.0100 0.0100 0.0100 0.0100 0.0100
0.0100 0.0100 0.0100 0.0100 0.0100 0.0100 0.0100 0.0100
0.0100 0.0100 0.0100 0.0100 0.0100 0.0100 0.0100 0.0100
0.0100 0.0100 0.0100 0.0100 0.0100 0.0100 0.0100 0.0100
0.0100 0.0100 0.0100 0.0100 0.0100 0.0100 0.0100 0.0100
0.0100 0.0100 0.0100 0.0100 0.0100 0.0100 0.0100 0.0100
0.0100 0.0100 0.0100 0.0100 0.0100 0.0100 0.0100 0.0100
0.0100 0.0100 0.0100 0.0100 0.0100 0.0100 0.0100 0.0100
0.0100 0.0100 0.0100 0.0100 0.0100 0.0100 0.0100 0.0100
0.0100 0.0100 0.0100 0.0100 0.0100 0.0100 0.0100 0.0100
0.0100 0.0100 0.0100 0.0100 0.0100 0.0100 0.0100 0.0100
0.0100 0.0100 0.0100 0.0100 0.0100 0.0100 0.0100 0.0100
0.0100 0.0100 0.0100 0.0100 0.0100 0.0100 0.0100 0.0100
0.0100 0.0100 0.0100 0.0100 0.0100 0.0100 0.0100 0.0100
0.0100 0.0100 0.0100 0.0100 0.0100 0.0100 0.0100 0.0100
0.0100 0.0100 0.0100 0.0100 0.0100 0.0100 0.0100 0.0100
0.0100 0.0100 0.0100 0.0100 0.0100 0.0100 0.0100 0.0100
0.0100 0.0100 0.0100 0.0100 0.0100 0.0100 0.0100 0.0100
0.0100 0.0100 0.0100 0.0100 0.0100 0.0100 0.0100 0.0100
0.0100 0.0100 0.0100 0.0100 0.0100 0.0100 0.0100 0.0100
0.0100 0.0100 0.0100 0.0100 0.0100 0.0100 0.0100 0.0100
0.0100 0.0100 0.0100 0.0100 0.0100 0.0100 0.0100 0.0100
0.0100 0.0100 0.0100 0.0100 0.0100 0.0100 0.0100 0.0100
0.0100 0.0100 0.0100 0.0100 0.0100 0.0100 0.0100 0.0100
0.0100 0.0100 0.0100 0.0100 0.0100 0.0100 0.0100 0.0100
0.0100 0.0100 0.0100 0.0100 0.0100 0.0100 0.0100 0.0100
0.0100 0.0100 0.0100 0.0100 0.0100 0.0100 0.0100 0.0100
0.0100 0.0100 0.0100 0.0100 0.0100 0.0100 0.0100 0.0100
0.0100 0.0100 0.0100 0.0100 0.0100 0.0100 0.0100 0.0100
0.0100 0.0100 0.0100 0.0100 0.0100 0.0100 0.0100 0.0100
0.0100 0.0100 0.0100 0.0100 0.0100 0.0100 0.0100 0.0100
0.0100 0.0100 0.0100 0.0100 0.0100 0.0100 0.0100 0.0100
0.0100 0.0100 0.0100 0.0100 0.0100 0.0100 0.0100 0.0100
0.0100 0.0100 0.0100 0.0100 0.0100 0.0100 0.0100 0.0100
0.0100 0.0100 0.0100 0.0100 0.0100 0.0100 0.0100 0.0100
0.0100 0.0100 0.0100 0.0100 0.0100 0.0100 0.0100 0.0100
0.0100 0.0100 0.0100 0.0100 0.0100 0.0100 0.0100 0.0100
0.0100 0.0100 0.0100 0.0100 0.0100 0.0100 0.0100 0.0100
0.0100 0.0100 0.0100 0.0100 0.0100 0.0100 0.0100 0.0100
0.0100 0.0100 0.0100 0.0100 0.0100 0.0100 0.0100 0.0100
0.0100 0.0100 0.0100 0.0100 0.0100 0.0100 0.0100 0.0100
0.0100 0.0100 0.0100 0.0100 0.0100 0.0100 0.0100 0.0100
0.0100 0.0100 0.0100 0.0100 0.0100 0.0100 0.0100 0.0100
0.0100 0.0100 0.0100 0.0100 0.0100 0.0100 0.0100 0.0100
0.0100 0.0100 0.0100 0.0100 0.0100 0.0100 0.0100 0.0100
0.0100 0.0100 0.0100 0.0100 0.0100 0.0100 0.0100 0.0100
0.0100 0.0100 0.0100 0.0100 0.0100 0.0100 0.0100 0.0100
0.0100 0.0100 0.0100 0.0100 0.0100 0.0100 0.0100 0.0100
0.0100 0.0100 0.0100 0.0100 0.0100 0.0100 0.0100 0.0100
0.0100 0.0100 0.0100 0.0100 0.0100 0.0100 0.0100 0.0100
0.0100 0.0100 0.0100 0.0100 0.0100 0.0100 0.0100 0.0100
0.0100 0.0100 0.0100 0.0100 0.0100 0.0100 0.0100 0.0100
0.0100 0.0100 0.0100 0.0100 0.0100 0.0100 0.0100 0.0100
0.0100 0.0100 0.0100 0.0100 0.0100 0.0100 0.0100 0.0100
0.0100 0.0100 0.0100 0.0100 0.0100 0.0100 0.0100 0.0100
0.0100 0.0100 0.0100 0.0100 0.0100 0.0100 0.0100 0.0100
0.0100 0.0100 0.0100 0.0100 0.0100 0.0100 0.0100 0.0100
0.0100 0.0100 0.0100 0.0100 0.0100 0.0100 0.0100 0.0100
0.0100 0.0100 0.0100 0.0100 0.0100 0.0100 0.0100 0.0100
0.0100 0.0100 0.0100 0.0100 0.0100 0.0100 0.0100 0.0100
0.0100 0.0100 0.0100 0.0100 0.0100 0.0100 0.0100 0.0100
0.0100 0.0100 0.0100 0.0100 0.0100 0.0100 0.0100 0.0100
0.0100 0.0100 0.0100 0.0100 0.0100 0.0100 0.0100 0.0100
0.0100 0.0100 0.0100 0.0100 0.0100 0.0100 0.0100 0.0100
0.0100 0.0100 0.0100 0.0100 0.0100 0.0100 0.0100 0.0100
0.0100 0.0100 0.0100 0.0100 0.0100 0.0100 0.0100 0.0100
0.0100 0.0100 0.0100 0.0100 0.0100 0.0100 0.0100 0.0100
0.0100 0.0100 0.0100 0.0100 0.0100 0.0100 0.0100 0.0100
0.0100 0.0100 0.0100 0.0100 0.0100 0.0100 0.0100 0.0100
0.0100 0.0100 0.0100 0.0100 0.0100 0.0100 0.0100 0.0100
0.0100 0.0100 0.0100 0.0100 0.0100 0.0100 0.0100 0.0100
0.0100 0.0100 0.0100 0.0100 0.0100 0.0100 0.0100 0.0100
0.0100 0.0100 0.0100 0.0100 0.0100 0.0100 0.0100 0.0100
0.0100 0.0100 0.0100 0.0100 0.0100 0.0100 0.0100 0.0100
0.0100 0.0100 0.0100 0.0100 0.0100 0.0100 0.0100 0.0100
0.0100 0.0100 0.0100 0.0100 0.0100 0.0100 0.0100 0.0100
0.0100 0.0100 0.0100 0.0100 0.0100 0.0100 0.0100 0.0100
0.0100 0.0100 0.0100 0.0100 0.0100 0.0100 0.0100 0.0100
0.0100 0.0100 0.0100 0.0100 0.0100 0.0100 0.0100 0.0100
0.0100 0.0100 0.0100 0.0100 0.0100 0.0100 0.0100 0.0100
0.0100 0.0100 0.0100 0.0100 0.0100 0.0100 0.0100 0.0100
0.0100 0.0100 0.0100 0.0100 0.0100 0.0100 0.0100 0.0100
0.0100 0.0100 0.0100 0.0100 0.0100 0.0100 0.0100 0.0100
0.0100 0.0100 0.0100 0.0100 0.0100 0.0100 0.0100 0.0100
0.0100 0.0100 0.0100 0.0100 0.0100 0.0100 0.0100 0.0100
0.0100 0.0100 0.0100 0.0100 0.0100 0.0100 0.0100 0.0100
0.0100 0.0100 0.0100 0.0100 0.0100 0.0100 0.0100 0.0100
0.0100 0.0100 0.0100 0.0100 0.0100 0.0100 0.0100 0.0100
0.0100 0.0100 0.0100 0.0100 0.0100 0.0100 0.0100 0.0100
0.0100 0.0100 0.0100 0.0100 0.0100 0.0100 0.0100 0.0100
0.0100 0.0100 0.0100 0.0100 0.0100 0.0100 0.0100 0.0100
0.0100 0.0100 0.0100 0.0100 0.0100 0.0100 0.0100 0.0100
0.0100 0.0100 0.0100 0.0100 0.0100 0.0100 0.0100 0.0100
0.0100 0.0100 0.0100 0.0100 0.0100 0.0100 0.0100 0.0100
0.0100 0.0100 0.0100 0.0100 0.0100 0.0100 0.0100 0.0100
0.0100 0.0100 0.0100 0.0100 0.0100 0.0100 0.0100 0.0100
0.0100 0.0100 0.0100 0.0100 0.0100 0.0100 0.0100 0.0100
0.0100 0.0100 0.0100 0.0100 0.0100 0.0100 0.0100 0.0100
0.0100 0.0100 0.0100 0.0100 0.0100 0.0100 0.0100 0.0100
0.0100 0.0100 0.0100 0.0100 0.0100 0.0100 0.0100 0.0100
0.0100 0.0100 0.0100 0.0100 0.0100 0.0100 0.0100 0.0100
0.0100 0.0100 0.0100 0.0100 0.0100 0.0100 0.0100 0.0100
0.0100 0.0100 0.0100 0.0100 0.0100 0.0100 0.0100 0.0100
0.0100 0.0100 0.0100 0.0100 0.0100 0.0100 0.0100 0.0100
0.0100 0.0100 0.0100 0.0100 0.0100 0.0100 0.0100 0.0100
0.0100 0.0100 0.0100 0.0100 0.0100 0.0100 0.0100 0.0100
0.0100 0.0100 0.0100 0.0100 0.0100 0.0100 0.0100 0.0100
0.0100 0.0100 0.0100 0.0100 0.0100 0.0100 0.0100 0.0100
0.0100 0.0100 0.0100 0.0100 0.0100 0.0100 0.0100 0.0100
0.0100 0.0100 0.0100 0.0100 0.0100 0.0100 0.0100 0.0100
0.0100 0.0100 0.0100 0.0100 0.0100 0.0100 0.0100 0.0100
0.0100 0.0100 0.0100 0.0100 0.0100 0.0100 0.0100 0.0100
0.0100 0.0100 0.0100 0.0100 0.0100 0.0100 0.0100 0.0100
0.0100 0.0100 0.0100 0.0100 0.0100 0.0100 0.0100 0.0100
0.0100 0.0100 0.0100 0.0100 0.0100 0.0100 0.0100 0.0100
0.0100 0.0100 0.0100 0.0100 0.0100 0.0100 0.0100 0.0100
0.0100 0.0100</PP_RAB></PP_MESH><PP_LOCAL type="real" size="1058" columns="4">
-1.7100356337E+01 -1.7099372947E+01 -1.7096426393E+01 -1.7091527562E+01
-1.7084694223E+01 -1.7075950513E+01 -1.7065326249E+01 -1.7052856085E+01
-1.7038578572E+01 -1.7022535147E+01 -1.7004769091E+01 -1.6985324505E+01
-1.6964245316E+01 -1.6941574369E+01 -1.6917352599E+01 -1.6891618324E+01
-1.6864406650E+01 -1.6835749004E+01 -1.6805672785E+01 -1.6774201131E+01
-1.6741352794E+01 -1.6707142108E+01 -1.6671579035E+01 -1.6634669290E+01
-1.6596414504E+01 -1.6556812450E+01 -1.6515857280E+01 -1.6473539797E+01
-1.6429847734E+01 -1.6384766041E+01 -1.6338277171E+01 -1.6290361363E+01
-1.6240996923E+01 -1.6190160493E+01 -1.6137827318E+01 -1.6083971506E+01
-1.6028566278E+01 -1.5971584226E+01 -1.5912997558E+01 -1.5852778362E+01
-1.5790898862E+01 -1.5727331701E+01 -1.5662050226E+01 -1.5595028811E+01
-1.5526243195E+01 -1.5455670862E+01 -1.5383291458E+01 -1.5309087245E+01
-1.5233043614E+01 -1.5155149622E+01 -1.5075398590E+01 -1.4993788714E+01
-1.4910323697E+01 -1.4825013384E+01 -1.4737874346E+01 -1.4648930423E+01
-1.4558213153E+01 -1.4465762077E+01 -1.4371624882E+01 -1.4275857351E+01
-1.4178523111E+01 -1.4079693171E+01 -1.3979445257E+01 -1.3877862980E+01
-1.3775034852E+01 -1.3671053228E+01 -1.3566013195E+01 -1.3460011486E+01
-1.3353145462E+01 -1.3245512202E+01 -1.3137207738E+01 -1.3028326451E+01
-1.2918960640E+01 -1.2809200241E+01 -1.2699132702E+01 -1.2588842964E+01
-1.2478413542E+01 -1.2367924662E+01 -1.2257454421E+01 -1.2147078963E+01
-1.2036872625E+01 -1.1926908056E+01 -1.1817256286E+01 -1.1707986743E+01
-1.1599167215E+01 -1.1490863772E+01 -1.1383140625E+01 -1.1276059969E+01
-1.1169681787E+01 -1.1064063643E+01 -1.0959260476E+01 -1.0855324392E+01
-1.0752304476E+01 -1.0650246625E+01 -1.0549193413E+01 -1.0449183985E+01
-1.0350253988E+01 -1.0252435537E+01 -1.0155757224E+01 -1.0060244145E+01
-9.9659179766E+00 -9.8727970648E+00 -9.7808965443E+00 -9.6902284736E+00
-9.6008019839E+00 -9.5126234372E+00 -9.4256965886E+00 -9.3400227482E+00
-9.2556009398E+00 -9.1724280516E+00 -9.0904989767E+00 -9.0098067392E+00
-8.9303426048E+00 -8.8520961750E+00 -8.7750554498E+00 -8.6992069077E+00
-8.6245355139E+00 -8.5510247241E+00 -8.4786559512E+00 -8.4074092560E+00
-8.3372653763E+00 -8.2682096886E+00 -8.2002317457E+00 -8.1333217674E+00
-8.0674639874E+00 -8.0026388561E+00 -7.9388261766E+00 -7.8760095155E+00
-7.8141738181E+00 -7.7533044200E+00 -7.6933866252E+00 -7.6344061404E+00
-7.5763493471E+00 -7.5192033508E+00 -7.4629545988E+00 -7.4075863486E+00
-7.3530726563E+00 -7.2993806224E+00 -7.2464745827E+00 -7.1943268110E+00
-7.1429196236E+00 -7.0922406871E+00 -7.0422784821E+00 -6.9930178591E+00
-6.9444436296E+00 -6.8965413263E+00 -6.8492973995E+00 -6.8026988531E+00
-6.7567324698E+00 -6.7113853294E+00 -6.6666449214E+00 -6.6224989890E+00
-6.5789355391E+00 -6.5359428672E+00 -6.4935095528E+00 -6.4516244597E+00
-6.4102767373E+00 -6.3694558203E+00 -6.3291514281E+00 -6.2893535625E+00
-6.2500525054E+00 -6.2112388141E+00 -6.1729033165E+00 -6.1350371043E+00
-6.0976315265E+00 -6.0606781801E+00 -6.0241689022E+00 -5.9880957593E+00
-5.9524510376E+00 -5.9172272322E+00 -5.8824170365E+00 -5.8480133314E+00
-5.8140091747E+00 -5.7803977910E+00 -5.7471725616E+00 -5.7143270155E+00
-5.6818548209E+00 -5.6497497773E+00 -5.6180058085E+00 -5.5866169568E+00
-5.5555773776E+00 -5.5248813348E+00 -5.4945231981E+00 -5.4644974392E+00
-5.4347986306E+00 -5.4054214441E+00 -5.3763606494E+00 -5.3476111146E+00
-5.3191678052E+00 -5.2910257850E+00 -5.2631802155E+00 -5.2356263577E+00
-5.2083595730E+00 -5.1813753240E+00 -5.1546691502E+00 -5.1282366926E+00
-5.1020737471E+00 -5.0761762119E+00 -5.0505400356E+00 -5.0251611940E+00
-5.0000357293E+00 -4.9751595950E+00 -4.9505288917E+00 -4.9261401142E+00
-4.9019900488E+00 -4.8780756127E+00 -4.8543937733E+00 -4.8309414925E+00
-4.8077153682E+00 -4.7847118769E+00 -4.7619275592E+00 -4.7393591851E+00
-4.7170036084E+00 -4.6948578495E+00 -4.6729190393E+00 -4.6511843565E+00
-4.6296509441E+00 -4.6083159936E+00 -4.5871767722E+00 -4.5662306033E+00
-4.5454748578E+00 -4.5249069492E+00 -4.5045243390E+00 -4.4843245343E+00
-4.4643050868E+00 -4.4444635918E+00 -4.4247976869E+00 -4.4053050517E+00
-4.3859834060E+00 -4.3668305099E+00 -4.3478441623E+00 -4.3290222001E+00
-4.3103624976E+00 -4.2918629656E+00 -4.2735215506E+00 -4.2553362340E+00
-4.2373050315E+00 -4.2194259922E+00 -4.2016971981E+00 -4.1841167632E+00
-4.1666828329E+00 -4.1493935835E+00 -4.1322472215E+00 -4.1152419826E+00
-4.0983761319E+00 -4.0816479623E+00 -4.0650557950E+00 -4.0485979779E+00
-4.0322728859E+00 -4.0160789198E+00 -4.0000145060E+00 -3.9840780962E+00
-3.9682681664E+00 -3.9525832168E+00 -3.9370217713E+00 -3.9215823768E+00
-3.9062636030E+00 -3.8910640420E+00 -3.8759823074E+00 -3.8610170344E+00
-3.8461668793E+00 -3.8314305188E+00 -3.8168066500E+00 -3.8022939896E+00
-3.7878912739E+00 -3.7735972582E+00 -3.7594107165E+00 -3.7453304413E+00
-3.7313552430E+00 -3.7174839498E+00 -3.7037154071E+00 -3.6900484774E+00
-3.6764820401E+00 -3.6630149907E+00 -3.6496462411E+00 -3.6363747190E+00
-3.6231993675E+00 -3.6101191450E+00 -3.5971330250E+00 -3.5842399956E+00
-3.5714390595E+00 -3.5587292333E+00 -3.5461095479E+00 -3.5335790477E+00
-3.5211367905E+00 -3.5087818477E+00 -3.4965133031E+00 -3.4843302538E+00
-3.4722318092E+00 -3.4602170910E+00 -3.4482852330E+00 -3.4364353811E+00
-3.4246666928E+00 -3.4129783370E+00 -3.4013694940E+00 -3.3898393552E+00
-3.3783871229E+00 -3.3670120103E+00 -3.3557132409E+00 -3.3444900488E+00
-3.3333416782E+00 -3.3222673834E+00 -3.3112664285E+00 -3.3003380875E+00
-3.2894816436E+00 -3.2786963899E+00 -3.2679816282E+00 -3.2573366699E+00
-3.2467608349E+00 -3.2362534523E+00 -3.2258138596E+00 -3.2154414028E+00
-3.2051354365E+00 -3.1948953233E+00 -3.1847204342E+00 -3.1746101478E+00
-3.1645638510E+00 -3.1545809382E+00 -3.1446608113E+00 -3.1348028800E+00
-3.1250065612E+00 -3.1152712790E+00 -3.1055964649E+00 -3.0959815571E+00
-3.0864260011E+00 -3.0769292489E+00 -3.0674907595E+00 -3.0581099983E+00
-3.0487864373E+00 -3.0395195549E+00 -3.0303088360E+00 -3.0211537715E+00
-3.0120538584E+00 -3.0030085999E+00 -2.9940175052E+00 -2.9850800892E+00
-2.9761958726E+00 -2.9673643818E+00 -2.9585851489E+00 -2.9498577114E+00
-2.9411816123E+00 -2.9325563999E+00 -2.9239816279E+00 -2.9154568552E+00
-2.9069816456E+00 -2.8985555682E+00 -2.8901781970E+00 -2.8818491109E+00
-2.8735678937E+00 -2.8653341339E+00 -2.8571474247E+00 -2.8490073639E+00
-2.8409135541E+00 -2.8328656021E+00 -2.8248631193E+00 -2.8169057215E+00
-2.8089930288E+00 -2.8011246654E+00 -2.7933002599E+00 -2.7855194450E+00
-2.7777818573E+00 -2.7700871378E+00 -2.7624349311E+00 -2.7548248858E+00
-2.7472566546E+00 -2.7397298936E+00 -2.7322442631E+00 -2.7247994267E+00
-2.7173950519E+00 -2.7100308098E+00 -2.7027063750E+00 -2.6954214255E+00
-2.6881756429E+00 -2.6809687123E+00 -2.6738003219E+00 -2.6666701634E+00
-2.6595779318E+00 -2.6525233254E+00 -2.6455060453E+00 -2.6385257963E+00
-2.6315822860E+00 -2.6246752250E+00 -2.6178043272E+00 -2.6109693092E+00
-2.6041698907E+00 -2.5974057943E+00 -2.5906767456E+00 -2.5839824728E+00
-2.5773227070E+00 -2.5706971821E+00 -2.5641056347E+00 -2.5575478040E+00
-2.5510234322E+00 -2.5445322637E+00 -2.5380740457E+00 -2.5316485280E+00
-2.5252554628E+00 -2.5188946049E+00 -2.5125657115E+00 -2.5062685423E+00
-2.5000028594E+00 -2.4937684271E+00 -2.4875650122E+00 -2.4813923840E+00
-2.4752503136E+00 -2.4691385748E+00 -2.4630569435E+00 -2.4570051977E+00
-2.4509831177E+00 -2.4449904858E+00 -2.4390270866E+00 -2.4330927067E+00
-2.4271871347E+00 -2.4213101616E+00 -2.4154615798E+00 -2.4096411844E+00
-2.4038487719E+00 -2.3980841410E+00 -2.3923470924E+00 -2.3866374285E+00
-2.3809549538E+00 -2.3752994745E+00 -2.3696707987E+00 -2.3640687362E+00
-2.3584930988E+00 -2.3529436999E+00 -2.3474203548E+00 -2.3419228804E+00
-2.3364510953E+00 -2.3310048200E+00 -2.3255838764E+00 -2.3201880881E+00
-2.3148172806E+00 -2.3094712807E+00 -2.3041499169E+00 -2.2988530193E+00
-2.2935804197E+00 -2.2883319510E+00 -2.2831074482E+00 -2.2779067474E+00
-2.2727296862E+00 -2.2675761040E+00 -2.2624458413E+00 -2.2573387401E+00
-2.2522546441E+00 -2.2471933981E+00 -2.2421548484E+00 -2.2371388426E+00
-2.2321452299E+00 -2.2271738605E+00 -2.2222245862E+00 -2.2172972600E+00
-2.2123917363E+00 -2.2075078705E+00 -2.2026455198E+00 -2.1978045420E+00
-2.1929847967E+00 -2.1881861445E+00 -2.1834084471E+00 -2.1786515677E+00
-2.1739153705E+00 -2.1691997208E+00 -2.1645044852E+00 -2.1598295315E+00
-2.1551747285E+00 -2.1505399462E+00 -2.1459250557E+00 -2.1413299292E+00
-2.1367544401E+00 -2.1321984627E+00 -2.1276618725E+00 -2.1231445460E+00
-2.1186463607E+00 -2.1141671952E+00 -2.1097069292E+00 -2.1052654433E+00
-2.1008426191E+00 -2.0964383392E+00 -2.0920524874E+00 -2.0876849480E+00
-2.0833356068E+00 -2.0790043501E+00 -2.0746910655E+00 -2.0703956412E+00
-2.0661179667E+00 -2.0618579320E+00 -2.0576154284E+00 -2.0533903477E+00
-2.0491825829E+00 -2.0449920278E+00 -2.0408185770E+00 -2.0366621260E+00
-2.0325225711E+00 -2.0283998095E+00 -2.0242937392E+00 -2.0202042591E+00
-2.0161312688E+00 -2.0120746688E+00 -2.0080343603E+00 -2.0040102454E+00
-2.0000022270E+00 -1.9960102086E+00 -1.9920340946E+00 -1.9880737902E+00
-1.9841292012E+00 -1.9802002344E+00 -1.9762867970E+00 -1.9723887972E+00
-1.9685061438E+00 -1.9646387464E+00 -1.9607865152E+00 -1.9569493613E+00
-1.9531271961E+00 -1.9493199321E+00 -1.9455274824E+00 -1.9417497605E+00
-1.9379866810E+00 -1.9342381588E+00 -1.9305041096E+00 -1.9267844497E+00
-1.9230790962E+00 -1.9193879666E+00 -1.9157109793E+00 -1.9120480530E+00
-1.9083991074E+00 -1.9047640624E+00 -1.9011428388E+00 -1.8975353580E+00
-1.8939415418E+00 -1.8903613128E+00 -1.8867945941E+00 -1.8832413092E+00
-1.8797013825E+00 -1.8761747388E+00 -1.8726613035E+00 -1.8691610024E+00
-1.8656737621E+00 -1.8621995096E+00 -1.8587381725E+00 -1.8552896789E+00
-1.8518539575E+00 -1.8484309374E+00 -1.8450205483E+00 -1.8416227204E+00
-1.8382373845E+00 -1.8348644718E+00 -1.8315039140E+00 -1.8281556434E+00
-1.8248195928E+00 -1.8214956952E+00 -1.8181838846E+00 -1.8148840949E+00
-1.8115962610E+00 -1.8083203179E+00 -1.8050562013E+00 -1.8018038472E+00
-1.7985631922E+00 -1.7953341733E+00 -1.7921167278E+00 -1.7889107937E+00
-1.7857163094E+00 -1.7825332135E+00 -1.7793614453E+00 -1.7762009445E+00
-1.7730516510E+00 -1.7699135055E+00 -1.7667864488E+00 -1.7636704222E+00
-1.7605653675E+00 -1.7574712268E+00 -1.7543879427E+00 -1.7513154581E+00
-1.7482537165E+00 -1.7452026615E+00 -1.7421622374E+00 -1.7391323886E+00
-1.7361130600E+00 -1.7331041970E+00 -1.7301057453E+00 -1.7271176509E+00
-1.7241398602E+00 -1.7211723200E+00 -1.7182149776E+00 -1.7152677803E+00
-1.7123306762E+00 -1.7094036134E+00 -1.7064865405E+00 -1.7035794065E+00
-1.7006821607E+00 -1.6977947527E+00 -1.6949171325E+00 -1.6920492504E+00
-1.6891910570E+00 -1.6863425034E+00 -1.6835035408E+00 -1.6806741210E+00
-1.6778541958E+00 -1.6750437175E+00 -1.6722426388E+00 -1.6694509126E+00
-1.6666684921E+00 -1.6638953309E+00 -1.6611313828E+00 -1.6583766021E+00
-1.6556309430E+00 -1.6528943605E+00 -1.6501668096E+00 -1.6474482457E+00
-1.6447386243E+00 -1.6420379016E+00 -1.6393460336E+00 -1.6366629770E+00
-1.6339886884E+00 -1.6313231252E+00 -1.6286662445E+00 -1.6260180040E+00
-1.6233783617E+00 -1.6207472757E+00 -1.6181247046E+00 -1.6155106070E+00
-1.6129049420E+00 -1.6103076687E+00 -1.6077187469E+00 -1.6051381361E+00
-1.6025657965E+00 -1.6000016883E+00 -1.5974457722E+00 -1.5948980089E+00
-1.5923583595E+00 -1.5898267853E+00 -1.5873032477E+00 -1.5847877087E+00
-1.5822801303E+00 -1.5797804746E+00 -1.5772887043E+00 -1.5748047821E+00
-1.5723286709E+00 -1.5698603340E+00 -1.5673997348E+00 -1.5649468370E+00
-1.5625016045E+00 -1.5600640014E+00 -1.5576339920E+00 -1.5552115410E+00
-1.5527966132E+00 -1.5503891734E+00 -1.5479891870E+00 -1.5455966194E+00
-1.5432114363E+00 -1.5408336035E+00 -1.5384630871E+00 -1.5360998533E+00
-1.5337438688E+00 -1.5313951001E+00 -1.5290535141E+00 -1.5267190781E+00
-1.5243917592E+00 -1.5220715249E+00 -1.5197583431E+00 -1.5174521815E+00
-1.5151530083E+00 -1.5128607917E+00 -1.5105755002E+00 -1.5082971025E+00
-1.5060255675E+00 -1.5037608641E+00 -1.5015029616E+00 -1.4992518294E+00
-1.4970074372E+00 -1.4947697546E+00 -1.4925387517E+00 -1.4903143985E+00
-1.4880966655E+00 -1.4858855230E+00 -1.4836809417E+00 -1.4814828926E+00
-1.4792913465E+00 -1.4771062748E+00 -1.4749276486E+00 -1.4727554396E+00
-1.4705896195E+00 -1.4684301600E+00 -1.4662770333E+00 -1.4641302115E+00
-1.4619896669E+00 -1.4598553721E+00 -1.4577272997E+00 -1.4556054226E+00
-1.4534897137E+00 -1.4513801462E+00 -1.4492766934E+00 -1.4471793288E+00
-1.4450880258E+00 -1.4430027584E+00 -1.4409235004E+00 -1.4388502259E+00
-1.4367829090E+00 -1.4347215242E+00 -1.4326660459E+00 -1.4306164488E+00
-1.4285727078E+00 -1.4265347976E+00 -1.4245026934E+00 -1.4224763705E+00
-1.4204558042E+00 -1.4184409700E+00 -1.4164318435E+00 -1.4144284006E+00
-1.4124306171E+00 -1.4104384690E+00 -1.4084519327E+00 -1.4064709844E+00
-1.4044956005E+00 -1.4025257577E+00 -1.4005614327E+00 -1.3986026022E+00
-1.3966492434E+00 -1.3947013333E+00 -1.3927588491E+00 -1.3908217682E+00
-1.3888900680E+00 -1.3869637263E+00 -1.3850427207E+00 -1.3831270291E+00
-1.3812166294E+00 -1.3793114998E+00 -1.3774116185E+00 -1.3755169639E+00
-1.3736275143E+00 -1.3717432484E+00 -1.3698641449E+00 -1.3679901826E+00
-1.3661213403E+00 -1.3642575973E+00 -1.3623989326E+00 -1.3605453254E+00