<UPF version="2.0.1"><PP_INFO>This pseudopotential file has been produced using the code
ONCVPSP (Optimized Norm-Conservinng Vanderbilt PSeudopotential)
scalar-relativistic version 3.3.0 08/16/2017 by D. R. Hamann
The code is available through a link at URL www.mat-simresearch.com.
Documentation with the package provides a full discription of the
input data below.
While it is not required under the terms of the GNU GPL, it is
suggested that you cite D. R. Hamann, Phys. Rev. B 88, 085117 (2013)
in any publication using these pseudopotentials.<PP_INPUTFILE>
# ATOM AND REFERENCE CONFIGURATION
# atsym z nc nv iexc psfile
Ne 10.00 1 2 -116133 upf
#
# n l f energy (Ha)
1 0 2.00
2 0 2.00
2 1 6.00
#
# PSEUDOPOTENTIAL AND OPTIMIZATION
# lmax
1
#
# l, rc, ep, ncon, nbas, qcut
0 1.30000 -1.33034 4 7 9.00000
1 1.50000 -0.48769 4 7 8.80000
#
# LOCAL POTENTIAL
# lloc, lpopt, rc(5), dvloc0
4 5 1.30000 0.00000
#
# VANDERBILT-KLEINMAN-BYLANDER PROJECTORs
# l, nproj, debl
0 2 1.50000
1 2 1.50000
#
# MODEL CORE CHARGE
# icmod, fcfact, rcfact
0 0.00000 0.00000
#
# LOG DERIVATIVE ANALYSIS
# epsh1, epsh2, depsh
-12.00 12.00 0.02
#
# OUTPUT GRID
# rlmax, drl
4.00 0.01
#
# TEST CONFIGURATIONS
# ncnf
0
# nvcnf
# n l f</PP_INPUTFILE></PP_INFO><PP_HEADER generated="Generated using ONCVPSP code by D. R. Hamann" author="anonymous" date="180301" comment="" element="Ne" pseudo_type="NC" relativistic="scalar" is_ultrasoft="F" is_paw="F" is_coulomb="F" has_so="F" has_wfc="F" has_gipaw="F" core_correction="F" functional="PBESOL" z_valence="    8.00" total_psenergy="  -6.76924076592E+01" rho_cutoff="   7.57000000000E+00" l_max="1" l_local="-1" mesh_size="   758" number_of_wfc="2" number_of_proj="4"/><PP_MESH><PP_R type="real" size=" 758" columns="8">
0.0000 0.0100 0.0200 0.0300 0.0400 0.0500 0.0600 0.0700
0.0800 0.0900 0.1000 0.1100 0.1200 0.1300 0.1400 0.1500
0.1600 0.1700 0.1800 0.1900 0.2000 0.2100 0.2200 0.2300
0.2400 0.2500 0.2600 0.2700 0.2800 0.2900 0.3000 0.3100
0.3200 0.3300 0.3400 0.3500 0.3600 0.3700 0.3800 0.3900
0.4000 0.4100 0.4200 0.4300 0.4400 0.4500 0.4600 0.4700
0.4800 0.4900 0.5000 0.5100 0.5200 0.5300 0.5400 0.5500
0.5600 0.5700 0.5800 0.5900 0.6000 0.6100 0.6200 0.6300
0.6400 0.6500 0.6600 0.6700 0.6800 0.6900 0.7000 0.7100
0.7200 0.7300 0.7400 0.7500 0.7600 0.7700 0.7800 0.7900
0.8000 0.8100 0.8200 0.8300 0.8400 0.8500 0.8600 0.8700
0.8800 0.8900 0.9000 0.9100 0.9200 0.9300 0.9400 0.9500
0.9600 0.9700 0.9800 0.9900 1.0000 1.0100 1.0200 1.0300
1.0400 1.0500 1.0600 1.0700 1.0800 1.0900 1.1000 1.1100
1.1200 1.1300 1.1400 1.1500 1.1600 1.1700 1.1800 1.1900
1.2000 1.2100 1.2200 1.2300 1.2400 1.2500 1.2600 1.2700
1.2800 1.2900 1.3000 1.3100 1.3200 1.3300 1.3400 1.3500
1.3600 1.3700 1.3800 1.3900 1.4000 1.4100 1.4200 1.4300
1.4400 1.4500 1.4600 1.4700 1.4800 1.4900 1.5000 1.5100
1.5200 1.5300 1.5400 1.5500 1.5600 1.5700 1.5800 1.5900
1.6000 1.6100 1.6200 1.6300 1.6400 1.6500 1.6600 1.6700
1.6800 1.6900 1.7000 1.7100 1.7200 1.7300 1.7400 1.7500
1.7600 1.7700 1.7800 1.7900 1.8000 1.8100 1.8200 1.8300
1.8400 1.8500 1.8600 1.8700 1.8800 1.8900 1.9000 1.9100
1.9200 1.9300 1.9400 1.9500 1.9600 1.9700 1.9800 1.9900
2.0000 2.0100 2.0200 2.0300 2.0400 2.0500 2.0600 2.0700
2.0800 2.0900 2.1000 2.1100 2.1200 2.1300 2.1400 2.1500
2.1600 2.1700 2.1800 2.1900 2.2000 2.2100 2.2200 2.2300
2.2400 2.2500 2.2600 2.2700 2.2800 2.2900 2.3000 2.3100
2.3200 2.3300 2.3400 2.3500 2.3600 2.3700 2.3800 2.3900
2.4000 2.4100 2.4200 2.4300 2.4400 2.4500 2.4600 2.4700
2.4800 2.4900 2.5000 2.5100 2.5200 2.5300 2.5400 2.5500
2.5600 2.5700 2.5800 2.5900 2.6000 2.6100 2.6200 2.6300
2.6400 2.6500 2.6600 2.6700 2.6800 2.6900 2.7000 2.7100
2.7200 2.7300 2.7400 2.7500 2.7600 2.7700 2.7800 2.7900
2.8000 2.8100 2.8200 2.8300 2.8400 2.8500 2.8600 2.8700
2.8800 2.8900 2.9000 2.9100 2.9200 2.9300 2.9400 2.9500
2.9600 2.9700 2.9800 2.9900 3.0000 3.0100 3.0200 3.0300
3.0400 3.0500 3.0600 3.0700 3.0800 3.0900 3.1000 3.1100
3.1200 3.1300 3.1400 3.1500 3.1600 3.1700 3.1800 3.1900
3.2000 3.2100 3.2200 3.2300 3.2400 3.2500 3.2600 3.2700
3.2800 3.2900 3.3000 3.3100 3.3200 3.3300 3.3400 3.3500
3.3600 3.3700 3.3800 3.3900 3.4000 3.4100 3.4200 3.4300
3.4400 3.4500 3.4600 3.4700 3.4800 3.4900 3.5000 3.5100
3.5200 3.5300 3.5400 3.5500 3.5600 3.5700 3.5800 3.5900
3.6000 3.6100 3.6200 3.6300 3.6400 3.6500 3.6600 3.6700
3.6800 3.6900 3.7000 3.7100 3.7200 3.7300 3.7400 3.7500
3.7600 3.7700 3.7800 3.7900 3.8000 3.8100 3.8200 3.8300
3.8400 3.8500 3.8600 3.8700 3.8800 3.8900 3.9000 3.9100
3.9200 3.9300 3.9400 3.9500 3.9600 3.9700 3.9800 3.9900
4.0000 4.0100 4.0200 4.0300 4.0400 4.0500 4.0600 4.0700
4.0800 4.0900 4.1000 4.1100 4.1200 4.1300 4.1400 4.1500
4.1600 4.1700 4.1800 4.1900 4.2000 4.2100 4.2200 4.2300
4.2400 4.2500 4.2600 4.2700 4.2800 4.2900 4.3000 4.3100
4.3200 4.3300 4.3400 4.3500 4.3600 4.3700 4.3800 4.3900
4.4000 4.4100 4.4200 4.4300 4.4400 4.4500 4.4600 4.4700
4.4800 4.4900 4.5000 4.5100 4.5200 4.5300 4.5400 4.5500
4.5600 4.5700 4.5800 4.5900 4.6000 4.6100 4.6200 4.6300
4.6400 4.6500 4.6600 4.6700 4.6800 4.6900 4.7000 4.7100
4.7200 4.7300 4.7400 4.7500 4.7600 4.7700 4.7800 4.7900
4.8000 4.8100 4.8200 4.8300 4.8400 4.8500 4.8600 4.8700
4.8800 4.8900 4.9000 4.9100 4.9200 4.9300 4.9400 4.9500
4.9600 4.9700 4.9800 4.9900 5.0000 5.0100 5.0200 5.0300
5.0400 5.0500 5.0600 5.0700 5.0800 5.0900 5.1000 5.1100
5.1200 5.1300 5.1400 5.1500 5.1600 5.1700 5.1800 5.1900
5.2000 5.2100 5.2200 5.2300 5.2400 5.2500 5.2600 5.2700
5.2800 5.2900 5.3000 5.3100 5.3200 5.3300 5.3400 5.3500
5.3600 5.3700 5.3800 5.3900 5.4000 5.4100 5.4200 5.4300
5.4400 5.4500 5.4600 5.4700 5.4800 5.4900 5.5000 5.5100
5.5200 5.5300 5.5400 5.5500 5.5600 5.5700 5.5800 5.5900
5.6000 5.6100 5.6200 5.6300 5.6400 5.6500 5.6600 5.6700
5.6800 5.6900 5.7000 5.7100 5.7200 5.7300 5.7400 5.7500
5.7600 5.7700 5.7800 5.7900 5.8000 5.8100 5.8200 5.8300
5.8400 5.8500 5.8600 5.8700 5.8800 5.8900 5.9000 5.9100
5.9200 5.9300 5.9400 5.9500 5.9600 5.9700 5.9800 5.9900
6.0000 6.0100 6.0200 6.0300 6.0400 6.0500 6.0600 6.0700
6.0800 6.0900 6.1000 6.1100 6.1200 6.1300 6.1400 6.1500
6.1600 6.1700 6.1800 6.1900 6.2000 6.2100 6.2200 6.2300
6.2400 6.2500 6.2600 6.2700 6.2800 6.2900 6.3000 6.3100
6.3200 6.3300 6.3400 6.3500 6.3600 6.3700 6.3800 6.3900
6.4000 6.4100 6.4200 6.4300 6.4400 6.4500 6.4600 6.4700
6.4800 6.4900 6.5000 6.5100 6.5200 6.5300 6.5400 6.5500
6.5600 6.5700 6.5800 6.5900 6.6000 6.6100 6.6200 6.6300
6.6400 6.6500 6.6600 6.6700 6.6800 6.6900 6.7000 6.7100
6.7200 6.7300 6.7400 6.7500 6.7600 6.7700 6.7800 6.7900
6.8000 6.8100 6.8200 6.8300 6.8400 6.8500 6.8600 6.8700
6.8800 6.8900 6.9000 6.9100 6.9200 6.9300 6.9400 6.9500
6.9600 6.9700 6.9800 6.9900 7.0000 7.0100 7.0200 7.0300
7.0400 7.0500 7.0600 7.0700 7.0800 7.0900 7.1000 7.1100
7.1200 7.1300 7.1400 7.1500 7.1600 7.1700 7.1800 7.1900
7.2000 7.2100 7.2200 7.2300 7.2400 7.2500 7.2600 7.2700
7.2800 7.2900 7.3000 7.3100 7.3200 7.3300 7.3400 7.3500
7.3600 7.3700 7.3800 7.3900 7.4000 7.4100 7.4200 7.4300
7.4400 7.4500 7.4600 7.4700 7.4800 7.4900 7.5000 7.5100
7.5200 7.5300 7.5400 7.5500 7.5600 7.5700</PP_R><PP_RAB type="real" size=" 758" columns="8">
0.0100 0.0100 0.0100 0.0100 0.0100 0.0100 0.0100 0.0100
0.0100 0.0100 0.0100 0.0100 0.0100 0.0100 0.0100 0.0100
0.0100 0.0100 0.0100 0.0100 0.0100 0.0100 0.0100 0.0100
0.0100 0.0100 0.0100 0.0100 0.0100 0.0100 0.0100 0.0100
0.0100 0.0100 0.0100 0.0100 0.0100 0.0100 0.0100 0.0100
0.0100 0.0100 0.0100 0.0100 0.0100 0.0100 0.0100 0.0100
0.0100 0.0100 0.0100 0.0100 0.0100 0.0100 0.0100 0.0100
0.0100 0.0100 0.0100 0.0100 0.0100 0.0100 0.0100 0.0100
0.0100 0.0100 0.0100 0.0100 0.0100 0.0100 0.0100 0.0100
0.0100 0.0100 0.0100 0.0100 0.0100 0.0100 0.0100 0.0100
0.0100 0.0100 0.0100 0.0100 0.0100 0.0100 0.0100 0.0100
0.0100 0.0100 0.0100 0.0100 0.0100 0.0100 0.0100 0.0100
0.0100 0.0100 0.0100 0.0100 0.0100 0.0100 0.0100 0.0100
0.0100 0.0100 0.0100 0.0100 0.0100 0.0100 0.0100 0.0100
0.0100 0.0100 0.0100 0.0100 0.0100 0.0100 0.0100 0.0100
0.0100 0.0100 0.0100 0.0100 0.0100 0.0100 0.0100 0.0100
0.0100 0.0100 0.0100 0.0100 0.0100 0.0100 0.0100 0.0100
0.0100 0.0100 0.0100 0.0100 0.0100 0.0100 0.0100 0.0100
0.0100 0.0100 0.0100 0.0100 0.0100 0.0100 0.0100 0.0100
0.0100 0.0100 0.0100 0.0100 0.0100 0.0100 0.0100 0.0100
0.0100 0.0100 0.0100 0.0100 0.0100 0.0100 0.0100 0.0100
0.0100 0.0100 0.0100 0.0100 0.0100 0.0100 0.0100 0.0100
0.0100 0.0100 0.0100 0.0100 0.0100 0.0100 0.0100 0.0100
0.0100 0.0100 0.0100 0.0100 0.0100 0.0100 0.0100 0.0100
0.0100 0.0100 0.0100 0.0100 0.0100 0.0100 0.0100 0.0100
0.0100 0.0100 0.0100 0.0100 0.0100 0.0100 0.0100 0.0100
0.0100 0.0100 0.0100 0.0100 0.0100 0.0100 0.0100 0.0100
0.0100 0.0100 0.0100 0.0100 0.0100 0.0100 0.0100 0.0100
0.0100 0.0100 0.0100 0.0100 0.0100 0.0100 0.0100 0.0100
0.0100 0.0100 0.0100 0.0100 0.0100 0.0100 0.0100 0.0100
0.0100 0.0100 0.0100 0.0100 0.0100 0.0100 0.0100 0.0100
0.0100 0.0100 0.0100 0.0100 0.0100 0.0100 0.0100 0.0100
0.0100 0.0100 0.0100 0.0100 0.0100 0.0100 0.0100 0.0100
0.0100 0.0100 0.0100 0.0100 0.0100 0.0100 0.0100 0.0100
0.0100 0.0100 0.0100 0.0100 0.0100 0.0100 0.0100 0.0100
0.0100 0.0100 0.0100 0.0100 0.0100 0.0100 0.0100 0.0100
0.0100 0.0100 0.0100 0.0100 0.0100 0.0100 0.0100 0.0100
0.0100 0.0100 0.0100 0.0100 0.0100 0.0100 0.0100 0.0100
0.0100 0.0100 0.0100 0.0100 0.0100 0.0100 0.0100 0.0100
0.0100 0.0100 0.0100 0.0100 0.0100 0.0100 0.0100 0.0100
0.0100 0.0100 0.0100 0.0100 0.0100 0.0100 0.0100 0.0100
0.0100 0.0100 0.0100 0.0100 0.0100 0.0100 0.0100 0.0100
0.0100 0.0100 0.0100 0.0100 0.0100 0.0100 0.0100 0.0100
0.0100 0.0100 0.0100 0.0100 0.0100 0.0100 0.0100 0.0100
0.0100 0.0100 0.0100 0.0100 0.0100 0.0100 0.0100 0.0100
0.0100 0.0100 0.0100 0.0100 0.0100 0.0100 0.0100 0.0100
0.0100 0.0100 0.0100 0.0100 0.0100 0.0100 0.0100 0.0100
0.0100 0.0100 0.0100 0.0100 0.0100 0.0100 0.0100 0.0100
0.0100 0.0100 0.0100 0.0100 0.0100 0.0100 0.0100 0.0100
0.0100 0.0100 0.0100 0.0100 0.0100 0.0100 0.0100 0.0100
0.0100 0.0100 0.0100 0.0100 0.0100 0.0100 0.0100 0.0100
0.0100 0.0100 0.0100 0.0100 0.0100 0.0100 0.0100 0.0100
0.0100 0.0100 0.0100 0.0100 0.0100 0.0100 0.0100 0.0100
0.0100 0.0100 0.0100 0.0100 0.0100 0.0100 0.0100 0.0100
0.0100 0.0100 0.0100 0.0100 0.0100 0.0100 0.0100 0.0100
0.0100 0.0100 0.0100 0.0100 0.0100 0.0100 0.0100 0.0100
0.0100 0.0100 0.0100 0.0100 0.0100 0.0100 0.0100 0.0100
0.0100 0.0100 0.0100 0.0100 0.0100 0.0100 0.0100 0.0100
0.0100 0.0100 0.0100 0.0100 0.0100 0.0100 0.0100 0.0100
0.0100 0.0100 0.0100 0.0100 0.0100 0.0100 0.0100 0.0100
0.0100 0.0100 0.0100 0.0100 0.0100 0.0100 0.0100 0.0100
0.0100 0.0100 0.0100 0.0100 0.0100 0.0100 0.0100 0.0100
0.0100 0.0100 0.0100 0.0100 0.0100 0.0100 0.0100 0.0100
0.0100 0.0100 0.0100 0.0100 0.0100 0.0100 0.0100 0.0100
0.0100 0.0100 0.0100 0.0100 0.0100 0.0100 0.0100 0.0100
0.0100 0.0100 0.0100 0.0100 0.0100 0.0100 0.0100 0.0100
0.0100 0.0100 0.0100 0.0100 0.0100 0.0100 0.0100 0.0100
0.0100 0.0100 0.0100 0.0100 0.0100 0.0100 0.0100 0.0100
0.0100 0.0100 0.0100 0.0100 0.0100 0.0100 0.0100 0.0100
0.0100 0.0100 0.0100 0.0100 0.0100 0.0100 0.0100 0.0100
0.0100 0.0100 0.0100 0.0100 0.0100 0.0100 0.0100 0.0100
0.0100 0.0100 0.0100 0.0100 0.0100 0.0100 0.0100 0.0100
0.0100 0.0100 0.0100 0.0100 0.0100 0.0100 0.0100 0.0100
0.0100 0.0100 0.0100 0.0100 0.0100 0.0100 0.0100 0.0100
0.0100 0.0100 0.0100 0.0100 0.0100 0.0100 0.0100 0.0100
0.0100 0.0100 0.0100 0.0100 0.0100 0.0100 0.0100 0.0100
0.0100 0.0100 0.0100 0.0100 0.0100 0.0100 0.0100 0.0100
0.0100 0.0100 0.0100 0.0100 0.0100 0.0100 0.0100 0.0100
0.0100 0.0100 0.0100 0.0100 0.0100 0.0100 0.0100 0.0100
0.0100 0.0100 0.0100 0.0100 0.0100 0.0100 0.0100 0.0100
0.0100 0.0100 0.0100 0.0100 0.0100 0.0100 0.0100 0.0100
0.0100 0.0100 0.0100 0.0100 0.0100 0.0100 0.0100 0.0100
0.0100 0.0100 0.0100 0.0100 0.0100 0.0100 0.0100 0.0100
0.0100 0.0100 0.0100 0.0100 0.0100 0.0100 0.0100 0.0100
0.0100 0.0100 0.0100 0.0100 0.0100 0.0100 0.0100 0.0100
0.0100 0.0100 0.0100 0.0100 0.0100 0.0100 0.0100 0.0100
0.0100 0.0100 0.0100 0.0100 0.0100 0.0100 0.0100 0.0100
0.0100 0.0100 0.0100 0.0100 0.0100 0.0100 0.0100 0.0100
0.0100 0.0100 0.0100 0.0100 0.0100 0.0100 0.0100 0.0100
0.0100 0.0100 0.0100 0.0100 0.0100 0.0100 0.0100 0.0100
0.0100 0.0100 0.0100 0.0100 0.0100 0.0100 0.0100 0.0100
0.0100 0.0100 0.0100 0.0100 0.0100 0.0100 0.0100 0.0100
0.0100 0.0100 0.0100 0.0100 0.0100 0.0100 0.0100 0.0100
0.0100 0.0100 0.0100 0.0100 0.0100 0.0100 0.0100 0.0100
0.0100 0.0100 0.0100 0.0100 0.0100 0.0100</PP_RAB></PP_MESH><PP_LOCAL type="real" size=" 758" columns="4">
-2.7264656962E+01 -2.7287953484E+01 -2.7347020155E+01 -2.7424130449E+01
-2.7499000395E+01 -2.7557028703E+01 -2.7591262987E+01 -2.7600748376E+01
-2.7587914776E+01 -2.7556497661E+01 -2.7510318431E+01 -2.7452731207E+01
-2.7386461084E+01 -2.7313630562E+01 -2.7235855995E+01 -2.7154355586E+01
-2.7070044687E+01 -2.6983611473E+01 -2.6895573649E+01 -2.6806319591E+01
-2.6716137678E+01 -2.6625237111E+01 -2.6533762729E+01 -2.6441805658E+01
-2.6349411078E+01 -2.6256584005E+01 -2.6163293713E+01 -2.6069477281E+01
-2.5975042629E+01 -2.5879871382E+01 -2.5783821792E+01 -2.5686731979E+01
-2.5588423630E+01 -2.5488706279E+01 -2.5387382173E+01 -2.5284251669E+01
-2.5179119012E+01 -2.5071798260E+01 -2.4962119067E+01 -2.4849932027E+01
-2.4735113245E+01 -2.4617567890E+01 -2.4497232523E+01 -2.4374076096E+01
-2.4248099640E+01 -2.4119334717E+01 -2.3987840842E+01 -2.3853702108E+01
-2.3717023282E+01 -2.3577925653E+01 -2.3436542889E+01 -2.3293017094E+01
-2.3147495250E+01 -2.3000126123E+01 -2.2851057716E+01 -2.2700435248E+01
-2.2548399658E+01 -2.2395086569E+01 -2.2240625661E+01 -2.2085140363E+01
-2.1928747817E+01 -2.1771559030E+01 -2.1613679156E+01 -2.1455207871E+01
-2.1296239788E+01 -2.1136864890E+01 -2.0977168946E+01 -2.0817233913E+01
-2.0657138290E+01 -2.0496957441E+01 -2.0336763870E+01 -2.0176627451E+01
-2.0016615624E+01 -1.9856793550E+01 -1.9697224230E+01 -1.9537968606E+01
-1.9379085624E+01 -1.9220632290E+01 -1.9062663706E+01 -1.8905233090E+01
-1.8748391798E+01 -1.8592189329E+01 -1.8436673339E+01 -1.8281889642E+01
-1.8127882225E+01 -1.7974693256E+01 -1.7822363099E+01 -1.7670930335E+01
-1.7520431786E+01 -1.7370902544E+01 -1.7222376005E+01 -1.7074883909E+01
-1.6928456384E+01 -1.6783121993E+01 -1.6638907785E+01 -1.6495839346E+01
-1.6353940854E+01 -1.6213235134E+01 -1.6073743710E+01 -1.5935486855E+01
-1.5798483643E+01 -1.5662751991E+01 -1.5528308702E+01 -1.5395169500E+01
-1.5263349059E+01 -1.5132861031E+01 -1.5003718059E+01 -1.4875931796E+01
-1.4749512907E+01 -1.4624471075E+01 -1.4500814994E+01 -1.4378552363E+01
-1.4257689878E+01 -1.4138233215E+01 -1.4020187014E+01 -1.3903554865E+01
-1.3788339287E+01 -1.3674541711E+01 -1.3562162461E+01 -1.3451200734E+01
-1.3341654587E+01 -1.3233520913E+01 -1.3126795426E+01 -1.3021472641E+01
-1.2917545847E+01 -1.2815007099E+01 -1.2713847175E+01 -1.2614055566E+01
-1.2515620250E+01 -1.2418527785E+01 -1.2322763539E+01 -1.2228313270E+01
-1.2135164032E+01 -1.2043303953E+01 -1.1952720675E+01 -1.1863399986E+01
-1.1775327527E+01 -1.1688489632E+01 -1.1602874268E+01 -1.1518470170E+01
-1.1435266364E+01 -1.1353252272E+01 -1.1272417500E+01 -1.1192751669E+01
-1.1114244139E+01 -1.1036883928E+01 -1.0960659386E+01 -1.0885558584E+01
-1.0811570051E+01 -1.0738680541E+01 -1.0666873811E+01 -1.0596119328E+01
-1.0526370620E+01 -1.0457574315E+01 -1.0389679129E+01 -1.0322654072E+01
-1.0256482633E+01 -1.0191151654E+01 -1.0126649456E+01 -1.0062959593E+01
-1.0000065274E+01 -9.9379521287E+00 -9.8766059275E+00 -9.8160124694E+00
-9.7561579638E+00 -9.6970289826E+00 -9.6386124149E+00 -9.5808954618E+00
-9.5238656294E+00 -9.4675107201E+00 -9.4118188230E+00 -9.3567783057E+00
-9.3023778067E+00 -9.2486062269E+00 -9.1954527224E+00 -9.1429066973E+00
-9.0909577965E+00 -9.0395958988E+00 -8.9888111106E+00 -8.9385937592E+00
-8.8889343871E+00 -8.8398237456E+00 -8.7912527895E+00 -8.7432126711E+00
-8.6956947352E+00 -8.6486905136E+00 -8.6021917204E+00 -8.5561902468E+00
-8.5106781566E+00 -8.4656476816E+00 -8.4210912171E+00 -8.3770013177E+00
-8.3333706931E+00 -8.2901922041E+00 -8.2474588587E+00 -8.2051638084E+00
-8.1633003443E+00 -8.1218618940E+00 -8.0808420177E+00 -8.0402344051E+00
-8.0000328720E+00 -7.9602313575E+00 -7.9208239206E+00 -7.8818047373E+00
-7.8431680980E+00 -7.8049084042E+00 -7.7670201665E+00 -7.7294980013E+00
-7.6923366287E+00 -7.6555308697E+00 -7.6190756441E+00 -7.5829659679E+00
-7.5471969513E+00 -7.5117637961E+00 -7.4766617941E+00 -7.4418863243E+00
-7.4074328517E+00 -7.3732969247E+00 -7.3394741732E+00 -7.3059603073E+00
-7.2727511148E+00 -7.2398424600E+00 -7.2072302814E+00 -7.1749105907E+00
-7.1428794705E+00 -7.1111330733E+00 -7.0796676197E+00 -7.0484793966E+00
-7.0175647564E+00 -6.9869201150E+00 -6.9565419507E+00 -6.9264268029E+00
-6.8965712704E+00 -6.8669720106E+00 -6.8376257380E+00 -6.8085292230E+00
-6.7796792908E+00 -6.7510728201E+00 -6.7227067420E+00 -6.6945780392E+00
-6.6666837444E+00 -6.6390209398E+00 -6.6115867558E+00 -6.5843783698E+00
-6.5573930057E+00 -6.5306279326E+00 -6.5040804641E+00 -6.4777479574E+00
-6.4516278120E+00 -6.4257174694E+00 -6.4000144120E+00 -6.3745161624E+00
-6.3492202824E+00 -6.3241243724E+00 -6.2992260705E+00 -6.2745230521E+00
-6.2500130285E+00 -6.2256937471E+00 -6.2015629898E+00 -6.1776185731E+00
-6.1538583469E+00 -6.1302801940E+00 -6.1068820297E+00 -6.0836618009E+00
-6.0606174856E+00 -6.0377470923E+00 -6.0150486595E+00 -5.9925202552E+00
-5.9701599759E+00 -5.9479659467E+00 -5.9259363204E+00 -5.9040692771E+00
-5.8823630234E+00 -5.8608157926E+00 -5.8394258434E+00 -5.8181914602E+00
-5.7971109518E+00 -5.7761826519E+00 -5.7554049179E+00 -5.7347761307E+00
-5.7142946945E+00 -5.6939590361E+00 -5.6737676048E+00 -5.6537188715E+00
-5.6338113289E+00 -5.6140434908E+00 -5.5944138916E+00 -5.5749210864E+00
-5.5555636503E+00 -5.5363401779E+00 -5.5172492834E+00 -5.4982896000E+00
-5.4794597796E+00 -5.4607584926E+00 -5.4421844274E+00 -5.4237362900E+00
-5.4054128043E+00 -5.3872127111E+00 -5.3691347680E+00 -5.3511777497E+00
-5.3333404466E+00 -5.3156216657E+00 -5.2980202295E+00 -5.2805349762E+00
-5.2631647591E+00 -5.2459084468E+00 -5.2287649225E+00 -5.2117330841E+00
-5.1948118435E+00 -5.1780001271E+00 -5.1612968748E+00 -5.1447010404E+00
-5.1282115910E+00 -5.1118275068E+00 -5.0955477812E+00 -5.0793714202E+00
-5.0632974424E+00 -5.0473248790E+00 -5.0314527732E+00 -5.0156801801E+00
-5.0000061668E+00 -4.9844298120E+00 -4.9689502058E+00 -4.9535664495E+00
-4.9382776556E+00 -4.9230829474E+00 -4.9079814593E+00 -4.8929723358E+00
-4.8780547322E+00 -4.8632278138E+00 -4.8484907564E+00 -4.8338427452E+00
-4.8192829758E+00 -4.8048106531E+00 -4.7904249916E+00 -4.7761252153E+00
-4.7619105572E+00 -4.7477802596E+00 -4.7337335737E+00 -4.7197697597E+00
-4.7058880861E+00 -4.6920878303E+00 -4.6783682782E+00 -4.6647287239E+00
-4.6511684696E+00 -4.6376868258E+00 -4.6242831108E+00 -4.6109566510E+00
-4.5977067802E+00 -4.5845328402E+00 -4.5714341800E+00 -4.5584101562E+00
-4.5454601327E+00 -4.5325834806E+00 -4.5197795780E+00 -4.5070478102E+00
-4.4943875692E+00 -4.4817982541E+00 -4.4692792703E+00 -4.4568300303E+00
-4.4444499526E+00 -4.4321384627E+00 -4.4198949921E+00 -4.4077189785E+00
-4.3956098661E+00 -4.3835671049E+00 -4.3715901511E+00 -4.3596784668E+00
-4.3478315197E+00 -4.3360487837E+00 -4.3243297380E+00 -4.3126738676E+00
-4.3010806631E+00 -4.2895496204E+00 -4.2780802409E+00 -4.2666720313E+00
-4.2553245035E+00 -4.2440371746E+00 -4.2328095668E+00 -4.2216412074E+00
-4.2105316288E+00 -4.1994803679E+00 -4.1884869668E+00 -4.1775509723E+00
-4.1666719359E+00 -4.1558494138E+00 -4.1450829667E+00 -4.1343721600E+00
-4.1237165634E+00 -4.1131157511E+00 -4.1025693017E+00 -4.0920767982E+00
-4.0816378276E+00 -4.0712519813E+00 -4.0609188548E+00 -4.0506380477E+00
-4.0404091636E+00 -4.0302318102E+00 -4.0201055991E+00 -4.0100301456E+00
-4.0000050692E+00 -3.9900299930E+00 -3.9801045437E+00 -3.9702283521E+00
-3.9604010522E+00 -3.9506222820E+00 -3.9408916828E+00 -3.9312088996E+00
-3.9215735808E+00 -3.9119853783E+00 -3.9024439472E+00 -3.8929489463E+00
-3.8835000373E+00 -3.8740968856E+00 -3.8647391595E+00 -3.8554265306E+00
-3.8461586738E+00 -3.8369352669E+00 -3.8277559910E+00 -3.8186205299E+00
-3.8095285709E+00 -3.8004798039E+00 -3.7914739218E+00 -3.7825106205E+00
-3.7735895988E+00 -3.7647105581E+00 -3.7558732029E+00 -3.7470772402E+00
-3.7383223800E+00 -3.7296083348E+00 -3.7209348199E+00 -3.7123015531E+00
-3.7037082549E+00 -3.6951546485E+00 -3.6866404595E+00 -3.6781654160E+00
-3.6697292487E+00 -3.6613316906E+00 -3.6529724774E+00 -3.6446513471E+00
-3.6363680399E+00 -3.6281222986E+00 -3.6199138681E+00 -3.6117424959E+00
-3.6036079316E+00 -3.5955099269E+00 -3.5874482360E+00 -3.5794226152E+00
-3.5714328230E+00 -3.5634786198E+00 -3.5555597686E+00 -3.5476760341E+00
-3.5398271832E+00 -3.5320129850E+00 -3.5242332105E+00 -3.5164876327E+00
-3.5087760266E+00 -3.5010981692E+00 -3.4934538394E+00 -3.4858428182E+00
-3.4782648883E+00 -3.4707198343E+00 -3.4632074428E+00 -3.4557275022E+00
-3.4482798026E+00 -3.4408641360E+00 -3.4334802962E+00 -3.4261280788E+00
-3.4188072811E+00 -3.4115177020E+00 -3.4042591423E+00 -3.3970314045E+00
-3.3898342926E+00 -3.3826676124E+00 -3.3755311713E+00 -3.3684247783E+00
-3.3613482440E+00 -3.3543013806E+00 -3.3472840020E+00 -3.3402959235E+00
-3.3333369619E+00 -3.3264069356E+00 -3.3195056646E+00 -3.3126329703E+00
-3.3057886754E+00 -3.2989726044E+00 -3.2921845830E+00 -3.2854244385E+00
-3.2786919995E+00 -3.2719870959E+00 -3.2653095593E+00 -3.2586592223E+00
-3.2520359193E+00 -3.2454394856E+00 -3.2388697580E+00 -3.2323265748E+00
-3.2258097754E+00 -3.2193192005E+00 -3.2128546921E+00 -3.2064160936E+00
-3.2000032494E+00 -3.1936160054E+00 -3.1872542085E+00 -3.1809177071E+00
-3.1746063505E+00 -3.1683199894E+00 -3.1620584755E+00 -3.1558216618E+00
-3.1496094026E+00 -3.1434215529E+00 -3.1372579694E+00 -3.1311185095E+00
-3.1250030318E+00 -3.1189113961E+00 -3.1128434633E+00 -3.1067990953E+00
-3.1007781551E+00 -3.0947805067E+00 -3.0888060152E+00 -3.0828545468E+00
-3.0769259688E+00 -3.0710201491E+00 -3.0651369571E+00 -3.0592762630E+00
-3.0534379380E+00 -3.0476218542E+00 -3.0418278848E+00 -3.0360559039E+00
-3.0303057866E+00 -3.0245774089E+00 -3.0188706477E+00 -3.0131853809E+00
-3.0075214873E+00 -3.0018788466E+00 -2.9962573394E+00 -2.9906568472E+00
-2.9850772523E+00 -2.9795184381E+00 -2.9739802887E+00 -2.9684626889E+00
-2.9629655248E+00 -2.9574886829E+00 -2.9520320508E+00 -2.9465955167E+00
-2.9411789700E+00 -2.9357823005E+00 -2.9304053990E+00 -2.9250481572E+00
-2.9197104674E+00 -2.9143922227E+00 -2.9090933171E+00 -2.9038136454E+00
-2.8985531028E+00 -2.8933115858E+00 -2.8880889913E+00 -2.8828852169E+00
-2.8777001612E+00 -2.8725337233E+00 -2.8673858031E+00 -2.8622563012E+00
-2.8571451190E+00 -2.8520521586E+00 -2.8469773226E+00 -2.8419205144E+00
-2.8368816382E+00 -2.8318605988E+00 -2.8268573015E+00 -2.8218716527E+00
-2.8169035589E+00 -2.8119529277E+00 -2.8070196672E+00 -2.8021036861E+00
-2.7972048938E+00 -2.7923232002E+00 -2.7874585160E+00 -2.7826107525E+00
-2.7777798216E+00 -2.7729656357E+00 -2.7681681079E+00 -2.7633871519E+00
-2.7586226819E+00 -2.7538746130E+00 -2.7491428604E+00 -2.7444273403E+00
-2.7397279693E+00 -2.7350446645E+00 -2.7303773438E+00 -2.7257259253E+00
-2.7210903281E+00 -2.7164704714E+00 -2.7118662753E+00 -2.7072776603E+00
-2.7027045473E+00 -2.6981468581E+00 -2.6936045146E+00 -2.6890774396E+00
-2.6845655561E+00 -2.6800687878E+00 -2.6755870589E+00 -2.6711202941E+00
-2.6666684185E+00 -2.6622313578E+00 -2.6578090383E+00 -2.6534013865E+00
-2.6490083296E+00 -2.6446297952E+00 -2.6402657115E+00 -2.6359160070E+00
-2.6315806107E+00 -2.6272594523E+00 -2.6229524616E+00 -2.6186595691E+00
-2.6143807057E+00 -2.6101158027E+00 -2.6058647920E+00 -2.6016276057E+00
-2.5974041765E+00 -2.5931944376E+00 -2.5889983225E+00 -2.5848157651E+00
-2.5806466998E+00 -2.5764910615E+00 -2.5723487855E+00 -2.5682198073E+00
-2.5641040630E+00 -2.5600014892E+00 -2.5559120226E+00 -2.5518356007E+00
-2.5477721609E+00 -2.5437216416E+00 -2.5396839810E+00 -2.5356591182E+00
-2.5316469923E+00 -2.5276475429E+00 -2.5236607102E+00 -2.5196864344E+00
-2.5157246564E+00 -2.5117753172E+00 -2.5078383585E+00 -2.5039137220E+00
-2.5000013501E+00 -2.4961011853E+00 -2.4922131705E+00 -2.4883372492E+00
-2.4844733649E+00 -2.4806214616E+00 -2.4767814838E+00 -2.4729533761E+00
-2.4691370836E+00 -2.4653325516E+00 -2.4615397260E+00 -2.4577585526E+00
-2.4539889780E+00 -2.4502309488E+00 -2.4464844121E+00 -2.4427493152E+00
-2.4390256058E+00 -2.4353132320E+00 -2.4316121420E+00 -2.4279222844E+00
-2.4242436083E+00 -2.4205760629E+00 -2.4169195976E+00 -2.4132741625E+00
-2.4096397076E+00 -2.4060161834E+00 -2.4024035407E+00 -2.3988017305E+00
-2.3952107042E+00 -2.3916304135E+00 -2.3880608102E+00 -2.3845018466E+00
-2.3809534752E+00 -2.3774156487E+00 -2.3738883203E+00 -2.3703714432E+00
-2.3668649711E+00 -2.3633688579E+00 -2.3598830578E+00 -2.3564075251E+00
-2.3529422146E+00 -2.3494870812E+00 -2.3460420802E+00 -2.3426071671E+00
-2.3391822976E+00 -2.3357674278E+00 -2.3323625139E+00 -2.3289675124E+00
-2.3255823801E+00 -2.3222070741E+00 -2.3188415516E+00 -2.3154857701E+00
-2.3121396875E+00 -2.3088032617E+00 -2.3054764509E+00 -2.3021592138E+00
-2.2988515089E+00 -2.2955532953E+00 -2.2922645323E+00 -2.2889851791E+00
-2.2857151956E+00 -2.2824545415E+00 -2.2792031771E+00 -2.2759610627E+00
-2.2727281589E+00 -2.2695044264E+00 -2.2662898264E+00 -2.2630843200E+00
-2.2598878687E+00 -2.2567004343E+00 -2.2535219785E+00 -2.2503524636E+00
-2.2471918518E+00 -2.2440401058E+00 -2.2408971881E+00 -2.2377630619E+00
-2.2346376902E+00 -2.2315210365E+00 -2.2284130642E+00 -2.2253137373E+00
-2.2222230196E+00 -2.2191408753E+00 -2.2160672689E+00 -2.2130021648E+00
-2.2099455279E+00 -2.2068973232E+00 -2.2038575157E+00 -2.2008260708E+00
-2.1978029541E+00 -2.1947881313E+00 -2.1917815683E+00 -2.1887832312E+00
-2.1857930863E+00 -2.1828111001E+00 -2.1798372392E+00 -2.1768714704E+00
-2.1739137609E+00 -2.1709640776E+00 -2.1680223882E+00 -2.1650886600E+00
-2.1621628608E+00 -2.1592449586E+00 -2.1563349213E+00 -2.1534327172E+00
-2.1505383148E+00 -2.1476516826E+00 -2.1447727894E+00 -2.1419016041E+00
-2.1390380958E+00 -2.1361822337E+00 -2.1333339873E+00 -2.1304933261E+00
-2.1276602198E+00 -2.1248346384E+00 -2.1220165520E+00 -2.1192059307E+00
-2.1164027449E+00 -2.1136069652E+00</PP_LOCAL><PP_NONLOCAL><PP_BETA.1 type="real" size=" 758" columns="4" index="1" angular_momentum="0" cutoff_radius_index=" 156" cutoff_radius="    1.5500000000E+00">
4.5653503200E-10 9.8868373784E-02 1.9741711910E-01 2.9532735408E-01
3.9228169450E-01 4.8796501360E-01 5.8206521470E-01 6.7427402046E-01
7.6428778200E-01 8.5180831053E-01 9.3654373376E-01 1.0182093782E+00
1.0965286781E+00 1.1712341105E+00 1.2420681551E+00 1.3087842770E+00
1.3711479294E+00 1.4289375707E+00 1.4819456928E+00 1.5299798537E+00
1.5728637067E+00 1.6104380200E+00 1.6425616767E+00 1.6691126477E+00
1.6899889256E+00 1.7051094110E+00 1.7144147402E+00 1.7178680433E+00
1.7154556219E+00 1.7071875354E+00 1.6930980859E+00 1.6732461908E+00
1.6477156337E+00 1.6166151843E+00 1.5800785792E+00 1.5382643568E+00
1.4913555385E+00 1.4395591529E+00 1.3831055985E+00 1.3222478421E+00
1.2572604528E+00 1.1884384728E+00 1.1160961253E+00 1.0405653662E+00
9.6219428310E-01 8.8134535064E-01 7.9839354974E-01 7.1372436255E-01
6.2773165463E-01 5.4081545831E-01 4.5337967211E-01 3.6582969262E-01
2.7856999611E-01 1.9200168839E-01 1.0652004195E-01 2.2512040302E-02
-5.9646050374E-02 -1.3959106169E-01 -2.1697523520E-01 -2.9146844591E-01
-3.6276031718E-01 -4.3056220775E-01 -4.9460905235E-01 -5.5466103846E-01
-6.1050510296E-01 -6.6195623374E-01 -7.0885856314E-01 -7.5108624172E-01
-7.8854408267E-01 -8.2116796935E-01 -8.4892502067E-01 -8.7181351088E-01
-8.8986254315E-01 -9.0313147824E-01 -9.1170912210E-01 -9.1571267866E-01
-9.1528647619E-01 -9.1060047810E-01 -9.0184859095E-01 -8.8924678493E-01
-8.7303104344E-01 -8.5345516081E-01 -8.3078840818E-01 -8.0531308963E-01
-7.7732201121E-01 -7.4711588698E-01 -7.1500070667E-01 -6.8128509008E-01
-6.4627765359E-01 -6.1028441417E-01 -5.7360625577E-01 -5.3653648261E-01
-4.9935848305E-01 -4.6234352629E-01 -4.2574871339E-01 -3.8981510191E-01
-3.5476602218E-01 -3.2080560088E-01 -2.8811750564E-01 -2.5686392184E-01
-2.2718477069E-01 -1.9919717444E-01 -1.7299517282E-01 -1.4864969109E-01
-1.2620875821E-01 -1.0569797044E-01 -8.7121193066E-02 -7.0461490333E-02
-5.5682271250E-02 -4.2728636326E-02 -3.1528908243E-02 -2.1996327165E-02
-1.4030889678E-02 -7.5213085576E-03 -2.3470693602E-03 1.6194416852E-03
4.5107646188E-03 6.4621743418E-03 7.6094980639E-03 8.0869688566E-03
8.0251421092E-03 7.5489013681E-03 6.7755791852E-03 5.8132171925E-03
4.7589883399E-03 3.6978032305E-03 2.7011194490E-03 1.8264502333E-03
1.1144209886E-03 5.8675221121E-04 2.8209685548E-04 1.5578318429E-04
5.9478517060E-05 -6.6451283509E-06 -6.2405826007E-06 2.6341522936E-06
-1.4427564925E-08 -3.5329049571E-07 0 0
0 0 0 0
0 0 0 0
0 0 0 0
0 0 0 0
0. 0. 0. 0.
0. 0. 0. 0.
0. 0. 0. 0.
0. 0. 0. 0.
0. 0. 0. 0.
0. 0. 0. 0.
0. 0. 0. 0.
0. 0. 0. 0.
0. 0. 0. 0.
0. 0. 0. 0.
0. 0. 0. 0.
0. 0. 0. 0.
0. 0. 0. 0.
0. 0. 0. 0.
0. 0. 0. 0.
0. 0. 0. 0.
0. 0. 0. 0.
0. 0. 0. 0.
0. 0. 0. 0.
0. 0. 0. 0.
0. 0. 0. 0.
0. 0. 0. 0.
0. 0. 0. 0.
0. 0. 0. 0.
0. 0. 0. 0.
0. 0. 0. 0.
0. 0. 0. 0.
0. 0. 0. 0.
0. 0. 0. 0.
0. 0. 0. 0.
0. 0. 0. 0.
0. 0. 0. 0.
0. 0. 0. 0.
0. 0. 0. 0.
0. 0. 0. 0.
0. 0. 0. 0.
0. 0. 0. 0.
0. 0. 0. 0.
0. 0. 0. 0.
0. 0. 0. 0.
0. 0. 0. 0.
0. 0. 0. 0.
0. 0. 0. 0.
0. 0. 0. 0.
0. 0. 0. 0.
0. 0. 0. 0.
0. 0. 0. 0.
0. 0. 0. 0.
0. 0. 0. 0.
0. 0. 0. 0.
0. 0. 0. 0.
0. 0. 0. 0.
0. 0. 0. 0.
0. 0. 0. 0.
0. 0. 0. 0.
0. 0. 0. 0.
0. 0. 0. 0.
0. 0. 0. 0.
0. 0. 0. 0.
0. 0. 0. 0.
0. 0. 0. 0.
0. 0. 0. 0.
0. 0. 0. 0.
0. 0. 0. 0.
0. 0. 0. 0.
0. 0. 0. 0.
0. 0. 0. 0.
0. 0. 0. 0.
0. 0. 0. 0.
0. 0. 0. 0.
0. 0. 0. 0.
0. 0. 0. 0.
0. 0. 0. 0.
0. 0. 0. 0.
0. 0. 0. 0.
0. 0. 0. 0.
0. 0. 0. 0.
0. 0. 0. 0.
0. 0. 0. 0.
0. 0. 0. 0.
0. 0. 0. 0.
0. 0. 0. 0.
0. 0. 0. 0.
0. 0. 0. 0.
0. 0. 0. 0.
0. 0. 0. 0.
0. 0. 0. 0.
0. 0. 0. 0.
0. 0. 0. 0.
0. 0. 0. 0.
0. 0. 0. 0.
0. 0. 0. 0.
0. 0. 0. 0.
0. 0. 0. 0.
0. 0. 0. 0.
0. 0. 0. 0.
0. 0. 0. 0.
0. 0. 0. 0.
0. 0. 0. 0.
0. 0. 0. 0.
0. 0. 0. 0.
0. 0. 0. 0.
0. 0. 0. 0.
0. 0. 0. 0.
0. 0. 0. 0.