<UPF version="2.0.1"><PP_INFO>This pseudopotential file has been produced using the code
ONCVPSP (Optimized Norm-Conservinng Vanderbilt PSeudopotential)
scalar-relativistic version 3.3.0 08/16/2017 by D. R. Hamann
The code is available through a link at URL www.mat-simresearch.com.
Documentation with the package provides a full discription of the
input data below.
While it is not required under the terms of the GNU GPL, it is
suggested that you cite D. R. Hamann, Phys. Rev. B 88, 085117 (2013)
in any publication using these pseudopotentials.<PP_INPUTFILE>
# ATOM AND REFERENCE CONFIGURATION
# atsym z nc nv iexc psfile
O 8.00 1 2 -116133 upf
#
# n l f energy (Ha)
1 0 2.00
2 0 2.00
2 1 4.00
#
# PSEUDOPOTENTIAL AND OPTIMIZATION
# lmax
2
#
# l, rc, ep, ncon, nbas, qcut
0 1.25000 -0.87495 4 8 8.50000
1 1.35000 -0.32980 4 8 9.40000
2 1.25000 0.10000 4 8 6.00000
#
# LOCAL POTENTIAL
# lloc, lpopt, rc(5), dvloc0
4 5 1.20000 0.00000
#
# VANDERBILT-KLEINMAN-BYLANDER PROJECTORs
# l, nproj, debl
0 2 1.00000
1 2 1.00000
2 1 1.00000
#
# MODEL CORE CHARGE
# icmod, fcfact, rcfact
3 4.00000 1.50000
#
# LOG DERIVATIVE ANALYSIS
# epsh1, epsh2, depsh
-12.00 12.00 0.02
#
# OUTPUT GRID
# rlmax, drl
6.00 0.01
#
# TEST CONFIGURATIONS
# ncnf
0
# nvcnf
# n l f</PP_INPUTFILE></PP_INFO><PP_HEADER generated="Generated using ONCVPSP code by D. R. Hamann" author="anonymous" date="180301" comment="" element="O " pseudo_type="NC" relativistic="scalar" is_ultrasoft="F" is_paw="F" is_coulomb="F" has_so="F" has_wfc="F" has_gipaw="F" core_correction="T" functional="PBESOL" z_valence="    6.00" total_psenergy="  -3.14563602668E+01" rho_cutoff="   9.35000000000E+00" l_max="2" l_local="-1" mesh_size="   936" number_of_wfc="2" number_of_proj="5"/><PP_MESH><PP_R type="real" size=" 936" columns="8">
0.0000 0.0100 0.0200 0.0300 0.0400 0.0500 0.0600 0.0700
0.0800 0.0900 0.1000 0.1100 0.1200 0.1300 0.1400 0.1500
0.1600 0.1700 0.1800 0.1900 0.2000 0.2100 0.2200 0.2300
0.2400 0.2500 0.2600 0.2700 0.2800 0.2900 0.3000 0.3100
0.3200 0.3300 0.3400 0.3500 0.3600 0.3700 0.3800 0.3900
0.4000 0.4100 0.4200 0.4300 0.4400 0.4500 0.4600 0.4700
0.4800 0.4900 0.5000 0.5100 0.5200 0.5300 0.5400 0.5500
0.5600 0.5700 0.5800 0.5900 0.6000 0.6100 0.6200 0.6300
0.6400 0.6500 0.6600 0.6700 0.6800 0.6900 0.7000 0.7100
0.7200 0.7300 0.7400 0.7500 0.7600 0.7700 0.7800 0.7900
0.8000 0.8100 0.8200 0.8300 0.8400 0.8500 0.8600 0.8700
0.8800 0.8900 0.9000 0.9100 0.9200 0.9300 0.9400 0.9500
0.9600 0.9700 0.9800 0.9900 1.0000 1.0100 1.0200 1.0300
1.0400 1.0500 1.0600 1.0700 1.0800 1.0900 1.1000 1.1100
1.1200 1.1300 1.1400 1.1500 1.1600 1.1700 1.1800 1.1900
1.2000 1.2100 1.2200 1.2300 1.2400 1.2500 1.2600 1.2700
1.2800 1.2900 1.3000 1.3100 1.3200 1.3300 1.3400 1.3500
1.3600 1.3700 1.3800 1.3900 1.4000 1.4100 1.4200 1.4300
1.4400 1.4500 1.4600 1.4700 1.4800 1.4900 1.5000 1.5100
1.5200 1.5300 1.5400 1.5500 1.5600 1.5700 1.5800 1.5900
1.6000 1.6100 1.6200 1.6300 1.6400 1.6500 1.6600 1.6700
1.6800 1.6900 1.7000 1.7100 1.7200 1.7300 1.7400 1.7500
1.7600 1.7700 1.7800 1.7900 1.8000 1.8100 1.8200 1.8300
1.8400 1.8500 1.8600 1.8700 1.8800 1.8900 1.9000 1.9100
1.9200 1.9300 1.9400 1.9500 1.9600 1.9700 1.9800 1.9900
2.0000 2.0100 2.0200 2.0300 2.0400 2.0500 2.0600 2.0700
2.0800 2.0900 2.1000 2.1100 2.1200 2.1300 2.1400 2.1500
2.1600 2.1700 2.1800 2.1900 2.2000 2.2100 2.2200 2.2300
2.2400 2.2500 2.2600 2.2700 2.2800 2.2900 2.3000 2.3100
2.3200 2.3300 2.3400 2.3500 2.3600 2.3700 2.3800 2.3900
2.4000 2.4100 2.4200 2.4300 2.4400 2.4500 2.4600 2.4700
2.4800 2.4900 2.5000 2.5100 2.5200 2.5300 2.5400 2.5500
2.5600 2.5700 2.5800 2.5900 2.6000 2.6100 2.6200 2.6300
2.6400 2.6500 2.6600 2.6700 2.6800 2.6900 2.7000 2.7100
2.7200 2.7300 2.7400 2.7500 2.7600 2.7700 2.7800 2.7900
2.8000 2.8100 2.8200 2.8300 2.8400 2.8500 2.8600 2.8700
2.8800 2.8900 2.9000 2.9100 2.9200 2.9300 2.9400 2.9500
2.9600 2.9700 2.9800 2.9900 3.0000 3.0100 3.0200 3.0300
3.0400 3.0500 3.0600 3.0700 3.0800 3.0900 3.1000 3.1100
3.1200 3.1300 3.1400 3.1500 3.1600 3.1700 3.1800 3.1900
3.2000 3.2100 3.2200 3.2300 3.2400 3.2500 3.2600 3.2700
3.2800 3.2900 3.3000 3.3100 3.3200 3.3300 3.3400 3.3500
3.3600 3.3700 3.3800 3.3900 3.4000 3.4100 3.4200 3.4300
3.4400 3.4500 3.4600 3.4700 3.4800 3.4900 3.5000 3.5100
3.5200 3.5300 3.5400 3.5500 3.5600 3.5700 3.5800 3.5900
3.6000 3.6100 3.6200 3.6300 3.6400 3.6500 3.6600 3.6700
3.6800 3.6900 3.7000 3.7100 3.7200 3.7300 3.7400 3.7500
3.7600 3.7700 3.7800 3.7900 3.8000 3.8100 3.8200 3.8300
3.8400 3.8500 3.8600 3.8700 3.8800 3.8900 3.9000 3.9100
3.9200 3.9300 3.9400 3.9500 3.9600 3.9700 3.9800 3.9900
4.0000 4.0100 4.0200 4.0300 4.0400 4.0500 4.0600 4.0700
4.0800 4.0900 4.1000 4.1100 4.1200 4.1300 4.1400 4.1500
4.1600 4.1700 4.1800 4.1900 4.2000 4.2100 4.2200 4.2300
4.2400 4.2500 4.2600 4.2700 4.2800 4.2900 4.3000 4.3100
4.3200 4.3300 4.3400 4.3500 4.3600 4.3700 4.3800 4.3900
4.4000 4.4100 4.4200 4.4300 4.4400 4.4500 4.4600 4.4700
4.4800 4.4900 4.5000 4.5100 4.5200 4.5300 4.5400 4.5500
4.5600 4.5700 4.5800 4.5900 4.6000 4.6100 4.6200 4.6300
4.6400 4.6500 4.6600 4.6700 4.6800 4.6900 4.7000 4.7100
4.7200 4.7300 4.7400 4.7500 4.7600 4.7700 4.7800 4.7900
4.8000 4.8100 4.8200 4.8300 4.8400 4.8500 4.8600 4.8700
4.8800 4.8900 4.9000 4.9100 4.9200 4.9300 4.9400 4.9500
4.9600 4.9700 4.9800 4.9900 5.0000 5.0100 5.0200 5.0300
5.0400 5.0500 5.0600 5.0700 5.0800 5.0900 5.1000 5.1100
5.1200 5.1300 5.1400 5.1500 5.1600 5.1700 5.1800 5.1900
5.2000 5.2100 5.2200 5.2300 5.2400 5.2500 5.2600 5.2700
5.2800 5.2900 5.3000 5.3100 5.3200 5.3300 5.3400 5.3500
5.3600 5.3700 5.3800 5.3900 5.4000 5.4100 5.4200 5.4300
5.4400 5.4500 5.4600 5.4700 5.4800 5.4900 5.5000 5.5100
5.5200 5.5300 5.5400 5.5500 5.5600 5.5700 5.5800 5.5900
5.6000 5.6100 5.6200 5.6300 5.6400 5.6500 5.6600 5.6700
5.6800 5.6900 5.7000 5.7100 5.7200 5.7300 5.7400 5.7500
5.7600 5.7700 5.7800 5.7900 5.8000 5.8100 5.8200 5.8300
5.8400 5.8500 5.8600 5.8700 5.8800 5.8900 5.9000 5.9100
5.9200 5.9300 5.9400 5.9500 5.9600 5.9700 5.9800 5.9900
6.0000 6.0100 6.0200 6.0300 6.0400 6.0500 6.0600 6.0700
6.0800 6.0900 6.1000 6.1100 6.1200 6.1300 6.1400 6.1500
6.1600 6.1700 6.1800 6.1900 6.2000 6.2100 6.2200 6.2300
6.2400 6.2500 6.2600 6.2700 6.2800 6.2900 6.3000 6.3100
6.3200 6.3300 6.3400 6.3500 6.3600 6.3700 6.3800 6.3900
6.4000 6.4100 6.4200 6.4300 6.4400 6.4500 6.4600 6.4700
6.4800 6.4900 6.5000 6.5100 6.5200 6.5300 6.5400 6.5500
6.5600 6.5700 6.5800 6.5900 6.6000 6.6100 6.6200 6.6300
6.6400 6.6500 6.6600 6.6700 6.6800 6.6900 6.7000 6.7100
6.7200 6.7300 6.7400 6.7500 6.7600 6.7700 6.7800 6.7900
6.8000 6.8100 6.8200 6.8300 6.8400 6.8500 6.8600 6.8700
6.8800 6.8900 6.9000 6.9100 6.9200 6.9300 6.9400 6.9500
6.9600 6.9700 6.9800 6.9900 7.0000 7.0100 7.0200 7.0300
7.0400 7.0500 7.0600 7.0700 7.0800 7.0900 7.1000 7.1100
7.1200 7.1300 7.1400 7.1500 7.1600 7.1700 7.1800 7.1900
7.2000 7.2100 7.2200 7.2300 7.2400 7.2500 7.2600 7.2700
7.2800 7.2900 7.3000 7.3100 7.3200 7.3300 7.3400 7.3500
7.3600 7.3700 7.3800 7.3900 7.4000 7.4100 7.4200 7.4300
7.4400 7.4500 7.4600 7.4700 7.4800 7.4900 7.5000 7.5100
7.5200 7.5300 7.5400 7.5500 7.5600 7.5700 7.5800 7.5900
7.6000 7.6100 7.6200 7.6300 7.6400 7.6500 7.6600 7.6700
7.6800 7.6900 7.7000 7.7100 7.7200 7.7300 7.7400 7.7500
7.7600 7.7700 7.7800 7.7900 7.8000 7.8100 7.8200 7.8300
7.8400 7.8500 7.8600 7.8700 7.8800 7.8900 7.9000 7.9100
7.9200 7.9300 7.9400 7.9500 7.9600 7.9700 7.9800 7.9900
8.0000 8.0100 8.0200 8.0300 8.0400 8.0500 8.0600 8.0700
8.0800 8.0900 8.1000 8.1100 8.1200 8.1300 8.1400 8.1500
8.1600 8.1700 8.1800 8.1900 8.2000 8.2100 8.2200 8.2300
8.2400 8.2500 8.2600 8.2700 8.2800 8.2900 8.3000 8.3100
8.3200 8.3300 8.3400 8.3500 8.3600 8.3700 8.3800 8.3900
8.4000 8.4100 8.4200 8.4300 8.4400 8.4500 8.4600 8.4700
8.4800 8.4900 8.5000 8.5100 8.5200 8.5300 8.5400 8.5500
8.5600 8.5700 8.5800 8.5900 8.6000 8.6100 8.6200 8.6300
8.6400 8.6500 8.6600 8.6700 8.6800 8.6900 8.7000 8.7100
8.7200 8.7300 8.7400 8.7500 8.7600 8.7700 8.7800 8.7900
8.8000 8.8100 8.8200 8.8300 8.8400 8.8500 8.8600 8.8700
8.8800 8.8900 8.9000 8.9100 8.9200 8.9300 8.9400 8.9500
8.9600 8.9700 8.9800 8.9900 9.0000 9.0100 9.0200 9.0300
9.0400 9.0500 9.0600 9.0700 9.0800 9.0900 9.1000 9.1100
9.1200 9.1300 9.1400 9.1500 9.1600 9.1700 9.1800 9.1900
9.2000 9.2100 9.2200 9.2300 9.2400 9.2500 9.2600 9.2700
9.2800 9.2900 9.3000 9.3100 9.3200 9.3300 9.3400 9.3500</PP_R><PP_RAB type="real" size=" 936" columns="8">
0.0100 0.0100 0.0100 0.0100 0.0100 0.0100 0.0100 0.0100
0.0100 0.0100 0.0100 0.0100 0.0100 0.0100 0.0100 0.0100
0.0100 0.0100 0.0100 0.0100 0.0100 0.0100 0.0100 0.0100
0.0100 0.0100 0.0100 0.0100 0.0100 0.0100 0.0100 0.0100
0.0100 0.0100 0.0100 0.0100 0.0100 0.0100 0.0100 0.0100
0.0100 0.0100 0.0100 0.0100 0.0100 0.0100 0.0100 0.0100
0.0100 0.0100 0.0100 0.0100 0.0100 0.0100 0.0100 0.0100
0.0100 0.0100 0.0100 0.0100 0.0100 0.0100 0.0100 0.0100
0.0100 0.0100 0.0100 0.0100 0.0100 0.0100 0.0100 0.0100
0.0100 0.0100 0.0100 0.0100 0.0100 0.0100 0.0100 0.0100
0.0100 0.0100 0.0100 0.0100 0.0100 0.0100 0.0100 0.0100
0.0100 0.0100 0.0100 0.0100 0.0100 0.0100 0.0100 0.0100
0.0100 0.0100 0.0100 0.0100 0.0100 0.0100 0.0100 0.0100
0.0100 0.0100 0.0100 0.0100 0.0100 0.0100 0.0100 0.0100
0.0100 0.0100 0.0100 0.0100 0.0100 0.0100 0.0100 0.0100
0.0100 0.0100 0.0100 0.0100 0.0100 0.0100 0.0100 0.0100
0.0100 0.0100 0.0100 0.0100 0.0100 0.0100 0.0100 0.0100
0.0100 0.0100 0.0100 0.0100 0.0100 0.0100 0.0100 0.0100
0.0100 0.0100 0.0100 0.0100 0.0100 0.0100 0.0100 0.0100
0.0100 0.0100 0.0100 0.0100 0.0100 0.0100 0.0100 0.0100
0.0100 0.0100 0.0100 0.0100 0.0100 0.0100 0.0100 0.0100
0.0100 0.0100 0.0100 0.0100 0.0100 0.0100 0.0100 0.0100
0.0100 0.0100 0.0100 0.0100 0.0100 0.0100 0.0100 0.0100
0.0100 0.0100 0.0100 0.0100 0.0100 0.0100 0.0100 0.0100
0.0100 0.0100 0.0100 0.0100 0.0100 0.0100 0.0100 0.0100
0.0100 0.0100 0.0100 0.0100 0.0100 0.0100 0.0100 0.0100
0.0100 0.0100 0.0100 0.0100 0.0100 0.0100 0.0100 0.0100
0.0100 0.0100 0.0100 0.0100 0.0100 0.0100 0.0100 0.0100
0.0100 0.0100 0.0100 0.0100 0.0100 0.0100 0.0100 0.0100
0.0100 0.0100 0.0100 0.0100 0.0100 0.0100 0.0100 0.0100
0.0100 0.0100 0.0100 0.0100 0.0100 0.0100 0.0100 0.0100
0.0100 0.0100 0.0100 0.0100 0.0100 0.0100 0.0100 0.0100
0.0100 0.0100 0.0100 0.0100 0.0100 0.0100 0.0100 0.0100
0.0100 0.0100 0.0100 0.0100 0.0100 0.0100 0.0100 0.0100
0.0100 0.0100 0.0100 0.0100 0.0100 0.0100 0.0100 0.0100
0.0100 0.0100 0.0100 0.0100 0.0100 0.0100 0.0100 0.0100
0.0100 0.0100 0.0100 0.0100 0.0100 0.0100 0.0100 0.0100
0.0100 0.0100 0.0100 0.0100 0.0100 0.0100 0.0100 0.0100
0.0100 0.0100 0.0100 0.0100 0.0100 0.0100 0.0100 0.0100
0.0100 0.0100 0.0100 0.0100 0.0100 0.0100 0.0100 0.0100
0.0100 0.0100 0.0100 0.0100 0.0100 0.0100 0.0100 0.0100
0.0100 0.0100 0.0100 0.0100 0.0100 0.0100 0.0100 0.0100
0.0100 0.0100 0.0100 0.0100 0.0100 0.0100 0.0100 0.0100
0.0100 0.0100 0.0100 0.0100 0.0100 0.0100 0.0100 0.0100
0.0100 0.0100 0.0100 0.0100 0.0100 0.0100 0.0100 0.0100
0.0100 0.0100 0.0100 0.0100 0.0100 0.0100 0.0100 0.0100
0.0100 0.0100 0.0100 0.0100 0.0100 0.0100 0.0100 0.0100
0.0100 0.0100 0.0100 0.0100 0.0100 0.0100 0.0100 0.0100
0.0100 0.0100 0.0100 0.0100 0.0100 0.0100 0.0100 0.0100
0.0100 0.0100 0.0100 0.0100 0.0100 0.0100 0.0100 0.0100
0.0100 0.0100 0.0100 0.0100 0.0100 0.0100 0.0100 0.0100
0.0100 0.0100 0.0100 0.0100 0.0100 0.0100 0.0100 0.0100
0.0100 0.0100 0.0100 0.0100 0.0100 0.0100 0.0100 0.0100
0.0100 0.0100 0.0100 0.0100 0.0100 0.0100 0.0100 0.0100
0.0100 0.0100 0.0100 0.0100 0.0100 0.0100 0.0100 0.0100
0.0100 0.0100 0.0100 0.0100 0.0100 0.0100 0.0100 0.0100
0.0100 0.0100 0.0100 0.0100 0.0100 0.0100 0.0100 0.0100
0.0100 0.0100 0.0100 0.0100 0.0100 0.0100 0.0100 0.0100
0.0100 0.0100 0.0100 0.0100 0.0100 0.0100 0.0100 0.0100
0.0100 0.0100 0.0100 0.0100 0.0100 0.0100 0.0100 0.0100
0.0100 0.0100 0.0100 0.0100 0.0100 0.0100 0.0100 0.0100
0.0100 0.0100 0.0100 0.0100 0.0100 0.0100 0.0100 0.0100
0.0100 0.0100 0.0100 0.0100 0.0100 0.0100 0.0100 0.0100
0.0100 0.0100 0.0100 0.0100 0.0100 0.0100 0.0100 0.0100
0.0100 0.0100 0.0100 0.0100 0.0100 0.0100 0.0100 0.0100
0.0100 0.0100 0.0100 0.0100 0.0100 0.0100 0.0100 0.0100
0.0100 0.0100 0.0100 0.0100 0.0100 0.0100 0.0100 0.0100
0.0100 0.0100 0.0100 0.0100 0.0100 0.0100 0.0100 0.0100
0.0100 0.0100 0.0100 0.0100 0.0100 0.0100 0.0100 0.0100
0.0100 0.0100 0.0100 0.0100 0.0100 0.0100 0.0100 0.0100
0.0100 0.0100 0.0100 0.0100 0.0100 0.0100 0.0100 0.0100
0.0100 0.0100 0.0100 0.0100 0.0100 0.0100 0.0100 0.0100
0.0100 0.0100 0.0100 0.0100 0.0100 0.0100 0.0100 0.0100
0.0100 0.0100 0.0100 0.0100 0.0100 0.0100 0.0100 0.0100
0.0100 0.0100 0.0100 0.0100 0.0100 0.0100 0.0100 0.0100
0.0100 0.0100 0.0100 0.0100 0.0100 0.0100 0.0100 0.0100
0.0100 0.0100 0.0100 0.0100 0.0100 0.0100 0.0100 0.0100
0.0100 0.0100 0.0100 0.0100 0.0100 0.0100 0.0100 0.0100
0.0100 0.0100 0.0100 0.0100 0.0100 0.0100 0.0100 0.0100
0.0100 0.0100 0.0100 0.0100 0.0100 0.0100 0.0100 0.0100
0.0100 0.0100 0.0100 0.0100 0.0100 0.0100 0.0100 0.0100
0.0100 0.0100 0.0100 0.0100 0.0100 0.0100 0.0100 0.0100
0.0100 0.0100 0.0100 0.0100 0.0100 0.0100 0.0100 0.0100
0.0100 0.0100 0.0100 0.0100 0.0100 0.0100 0.0100 0.0100
0.0100 0.0100 0.0100 0.0100 0.0100 0.0100 0.0100 0.0100
0.0100 0.0100 0.0100 0.0100 0.0100 0.0100 0.0100 0.0100
0.0100 0.0100 0.0100 0.0100 0.0100 0.0100 0.0100 0.0100
0.0100 0.0100 0.0100 0.0100 0.0100 0.0100 0.0100 0.0100
0.0100 0.0100 0.0100 0.0100 0.0100 0.0100 0.0100 0.0100
0.0100 0.0100 0.0100 0.0100 0.0100 0.0100 0.0100 0.0100
0.0100 0.0100 0.0100 0.0100 0.0100 0.0100 0.0100 0.0100
0.0100 0.0100 0.0100 0.0100 0.0100 0.0100 0.0100 0.0100
0.0100 0.0100 0.0100 0.0100 0.0100 0.0100 0.0100 0.0100
0.0100 0.0100 0.0100 0.0100 0.0100 0.0100 0.0100 0.0100
0.0100 0.0100 0.0100 0.0100 0.0100 0.0100 0.0100 0.0100
0.0100 0.0100 0.0100 0.0100 0.0100 0.0100 0.0100 0.0100
0.0100 0.0100 0.0100 0.0100 0.0100 0.0100 0.0100 0.0100
0.0100 0.0100 0.0100 0.0100 0.0100 0.0100 0.0100 0.0100
0.0100 0.0100 0.0100 0.0100 0.0100 0.0100 0.0100 0.0100
0.0100 0.0100 0.0100 0.0100 0.0100 0.0100 0.0100 0.0100
0.0100 0.0100 0.0100 0.0100 0.0100 0.0100 0.0100 0.0100
0.0100 0.0100 0.0100 0.0100 0.0100 0.0100 0.0100 0.0100
0.0100 0.0100 0.0100 0.0100 0.0100 0.0100 0.0100 0.0100
0.0100 0.0100 0.0100 0.0100 0.0100 0.0100 0.0100 0.0100
0.0100 0.0100 0.0100 0.0100 0.0100 0.0100 0.0100 0.0100
0.0100 0.0100 0.0100 0.0100 0.0100 0.0100 0.0100 0.0100
0.0100 0.0100 0.0100 0.0100 0.0100 0.0100 0.0100 0.0100
0.0100 0.0100 0.0100 0.0100 0.0100 0.0100 0.0100 0.0100
0.0100 0.0100 0.0100 0.0100 0.0100 0.0100 0.0100 0.0100
0.0100 0.0100 0.0100 0.0100 0.0100 0.0100 0.0100 0.0100
0.0100 0.0100 0.0100 0.0100 0.0100 0.0100 0.0100 0.0100
0.0100 0.0100 0.0100 0.0100 0.0100 0.0100 0.0100 0.0100
0.0100 0.0100 0.0100 0.0100 0.0100 0.0100 0.0100 0.0100
0.0100 0.0100 0.0100 0.0100 0.0100 0.0100 0.0100 0.0100
0.0100 0.0100 0.0100 0.0100 0.0100 0.0100 0.0100 0.0100
0.0100 0.0100 0.0100 0.0100 0.0100 0.0100 0.0100 0.0100
0.0100 0.0100 0.0100 0.0100 0.0100 0.0100 0.0100 0.0100</PP_RAB></PP_MESH><PP_LOCAL type="real" size=" 936" columns="4">
-2.0582730996E+01 -2.0581590790E+01 -2.0578182347E+01 -2.0572542037E+01
-2.0564728331E+01 -2.0554818875E+01 -2.0542906680E+01 -2.0529095732E+01
-2.0513496316E+01 -2.0496220365E+01 -2.0477377065E+01 -2.0457068944E+01
-2.0435388575E+01 -2.0412415969E+01 -2.0388216690E+01 -2.0362840652E+01
-2.0336321528E+01 -2.0308676701E+01 -2.0279907637E+01 -2.0250000586E+01
-2.0218927520E+01 -2.0186647222E+01 -2.0153106444E+01 -2.0118241106E+01
-2.0081977465E+01 -2.0044233252E+01 -2.0004918749E+01 -1.9963937800E+01
-1.9921188768E+01 -1.9876565434E+01 -1.9829957857E+01 -1.9781253212E+01
-1.9730336619E+01 -1.9677092007E+01 -1.9621403006E+01 -1.9563153942E+01
-1.9502230937E+01 -1.9438523168E+01 -1.9371924320E+01 -1.9302334269E+01
-1.9229661001E+01 -1.9153822777E+01 -1.9074750507E+01 -1.8992390249E+01
-1.8906705725E+01 -1.8817680692E+01 -1.8725320957E+01 -1.8629655834E+01
-1.8530738832E+01 -1.8428647413E+01 -1.8323481735E+01 -1.8215362377E+01
-1.8104427192E+01 -1.7990827482E+01 -1.7874723823E+01 -1.7756281865E+01
-1.7635668437E+01 -1.7513048238E+01 -1.7388581289E+01 -1.7262421245E+01
-1.7134714535E+01 -1.7005600233E+01 -1.6875210521E+01 -1.6743671526E+01
-1.6611104392E+01 -1.6477626380E+01 -1.6343351895E+01 -1.6208393334E+01
-1.6072861695E+01 -1.5936866933E+01 -1.5800518057E+01 -1.5663923007E+01
-1.5527188335E+01 -1.5390418752E+01 -1.5253716594E+01 -1.5117181241E+01
-1.4980908555E+01 -1.4844990368E+01 -1.4709514039E+01 -1.4574562120E+01
-1.4440212125E+01 -1.4306536411E+01 -1.4173602172E+01 -1.4041471522E+01
-1.3910201673E+01 -1.3779845169E+01 -1.3650450182E+01 -1.3522060835E+01
-1.3394717555E+01 -1.3268457416E+01 -1.3143314492E+01 -1.3019320182E+01
-1.2896503520E+01 -1.2774891447E+01 -1.2654509055E+01 -1.2535379798E+01
-1.2417525654E+01 -1.2300967265E+01 -1.2185724033E+01 -1.2071814180E+01
-1.1959254786E+01 -1.1848061788E+01 -1.1738249960E+01 -1.1629832867E+01
-1.1522822804E+01 -1.1417230713E+01 -1.1313066091E+01 -1.1210336893E+01
-1.1109049415E+01 -1.1009208186E+01 -1.0910815848E+01 -1.0813873045E+01
-1.0718378298E+01 -1.0624327899E+01 -1.0531715797E+01 -1.0440533485E+01
-1.0350769901E+01 -1.0262411316E+01 -1.0175441235E+01 -1.0089840339E+01
-1.0005586262E+01 -9.9226535774E+00 -9.8410156437E+00 -9.7606459176E+00
-9.6815193459E+00 -9.6036129837E+00 -9.5269100682E+00 -9.4514015574E+00
-9.3770831332E+00 -9.3039474610E+00 -9.2319794701E+00 -9.1611595815E+00
-9.0914685041E+00 -9.0228903439E+00 -8.9554078403E+00 -8.8889960667E+00
-8.8236157954E+00 -8.7592197942E+00 -8.6957610596E+00 -8.6332080400E+00
-8.5715409649E+00 -8.5107464040E+00 -8.4508090048E+00 -8.3917094760E+00
-8.3334296514E+00 -8.2759522739E+00 -8.2192615959E+00 -8.1633421562E+00
-8.1081783662E+00 -8.0537552045E+00 -8.0000581241E+00 -7.9470728756E+00
-7.8947855438E+00 -7.8431825415E+00 -7.7922505903E+00 -7.7419767124E+00
-7.6923482231E+00 -7.6433527254E+00 -7.5949781057E+00 -7.5472125314E+00
-7.5000444485E+00 -7.4534625787E+00 -7.4074559233E+00 -7.3620137600E+00
-7.3171256064E+00 -7.2727812581E+00 -7.2289708872E+00 -7.1856848787E+00
-7.1429137407E+00 -7.1006481408E+00 -7.0588787096E+00 -7.0175964821E+00
-6.9767934318E+00 -6.9364619372E+00 -6.8965946056E+00 -6.8571840441E+00
-6.8182222233E+00 -6.7797009931E+00 -6.7416126167E+00 -6.7039496600E+00
-6.6667050421E+00 -6.6298719693E+00 -6.5934437160E+00 -6.5574136043E+00
-6.5217751174E+00 -6.4865219153E+00 -6.4516477881E+00 -6.4171466525E+00
-6.3830125562E+00 -6.3492396731E+00 -6.3158222998E+00 -6.2827548522E+00
-6.2500318626E+00 -6.2176479766E+00 -6.1855979502E+00 -6.1538766470E+00
-6.1224790354E+00 -6.0914001860E+00 -6.0606352688E+00 -6.0301795512E+00
-6.0000283951E+00 -5.9701772546E+00 -5.9406216739E+00 -5.9113572850E+00
-5.8823798056E+00 -5.8536850369E+00 -5.8252688617E+00 -5.7971272422E+00
-5.7692562184E+00 -5.7416519061E+00 -5.7143104950E+00 -5.6872282470E+00
-5.6604014947E+00 -5.6338266394E+00 -5.6075001497E+00 -5.5814185601E+00
-5.5555784690E+00 -5.5299765376E+00 -5.5046094885E+00 -5.4794741040E+00
-5.4545672249E+00 -5.4298857493E+00 -5.4054266311E+00 -5.3811868789E+00
-5.3571635546E+00 -5.3333537726E+00 -5.3097546980E+00 -5.2863635462E+00
-5.2631775813E+00 -5.2401941152E+00 -5.2174105065E+00 -5.1948241596E+00
-5.1724325237E+00 -5.1502330917E+00 -5.1282233994E+00 -5.1064010246E+00
-5.0847635860E+00 -5.0633087427E+00 -5.0420341930E+00 -5.0209376738E+00
-5.0000169596E+00 -4.9792698620E+00 -4.9586942286E+00 -4.9382879427E+00
-4.9180489220E+00 -4.8979751184E+00 -4.8780645170E+00 -4.8583151355E+00
-4.8387250238E+00 -4.8192922629E+00 -4.8000149645E+00 -4.7808912706E+00
-4.7619193525E+00 -4.7430974105E+00 -4.7244236732E+00 -4.7058963970E+00
-4.6875138656E+00 -4.6692743893E+00 -4.6511763047E+00 -4.6332179741E+00
-4.6153977850E+00 -4.5977141494E+00 -4.5801655039E+00 -4.5627503085E+00
-4.5454670469E+00 -4.5283142255E+00 -4.5112903730E+00 -4.4943940405E+00
-4.4776238006E+00 -4.4609782469E+00 -4.4444559941E+00 -4.4280556772E+00
-4.4117759514E+00 -4.3956154915E+00 -4.3795729917E+00 -4.3636471652E+00
-4.3478367438E+00 -4.3321404776E+00 -4.3165571347E+00 -4.3010855011E+00
-4.2857243797E+00 -4.2704725907E+00 -4.2553289711E+00 -4.2402923742E+00
-4.2253616695E+00 -4.2105357424E+00 -4.1958134938E+00 -4.1811938399E+00
-4.1666757122E+00 -4.1522580566E+00 -4.1379398339E+00 -4.1237200190E+00
-4.1095976009E+00 -4.0955715823E+00 -4.0816409796E+00 -4.0678048225E+00
-4.0540621538E+00 -4.0404120291E+00 -4.0268535169E+00 -4.0133856979E+00
-4.0000076652E+00 -3.9867185240E+00 -3.9735173912E+00 -3.9604033956E+00
-3.9473756771E+00 -3.9344333872E+00 -3.9215756883E+00 -3.9088017539E+00
-3.8961107681E+00 -3.8835019254E+00 -3.8709744311E+00 -3.8585275005E+00
-3.8461603588E+00 -3.8338722413E+00 -3.8216623930E+00 -3.8095300686E+00
-3.7974745320E+00 -3.7854950565E+00 -3.7735909247E+00 -3.7617614278E+00
-3.7500058663E+00 -3.7383235491E+00 -3.7267137939E+00 -3.7151759267E+00
-3.7037092818E+00 -3.6923132019E+00 -3.6809870376E+00 -3.6697301474E+00
-3.6585418977E+00 -3.6474216627E+00 -3.6363688240E+00 -3.6253827707E+00
-3.6144628995E+00 -3.6036086140E+00 -3.5928193251E+00 -3.5820944509E+00
-3.5714334161E+00 -3.5608356524E+00 -3.5503005983E+00 -3.5398276989E+00
-3.5294164056E+00 -3.5190661765E+00 -3.5087764759E+00 -3.4985467745E+00
-3.4883765489E+00 -3.4782652820E+00 -3.4682124626E+00 -3.4582175853E+00
-3.4482801507E+00 -3.4383996650E+00 -3.4285756399E+00 -3.4188075930E+00
-3.4090950471E+00 -3.3994375306E+00 -3.3898345771E+00 -3.3802857255E+00
-3.3707905199E+00 -3.3613485094E+00 -3.3519592483E+00 -3.3426222957E+00
-3.3333372158E+00 -3.3241035775E+00 -3.3149209544E+00 -3.3057889249E+00
-3.2967070721E+00 -3.2876749834E+00 -3.2786922511E+00 -3.2697584715E+00
-3.2608732458E+00 -3.2520361790E+00 -3.2432468807E+00 -3.2345049646E+00
-3.2258100486E+00 -3.2171617547E+00 -3.2085597088E+00 -3.2000035411E+00
-3.1914928853E+00 -3.1830273794E+00 -3.1746066651E+00 -3.1662303876E+00
-3.1578981963E+00 -3.1496097440E+00 -3.1413646871E+00 -3.1331626858E+00
-3.1250034036E+00 -3.1168865077E+00 -3.1088116687E+00 -3.1007785604E+00
-3.0927868603E+00 -3.0848362489E+00 -3.0769264102E+00 -3.0690570314E+00
-3.0612278028E+00 -3.0534384179E+00 -3.0456885734E+00 -3.0379779688E+00
-3.0303063069E+00 -3.0226732935E+00 -3.0150786372E+00 -3.0075220495E+00
-3.0000032451E+00 -2.9925219411E+00 -2.9850778577E+00 -2.9776707180E+00
-2.9703002474E+00 -2.9629661743E+00 -2.9556682299E+00 -2.9484061478E+00
-2.9411796643E+00 -2.9339885183E+00 -2.9268324512E+00 -2.9197112069E+00
-2.9126245319E+00 -2.9055721751E+00 -2.8985538877E+00 -2.8915694235E+00
-2.8846185386E+00 -2.8777009913E+00 -2.8708165425E+00 -2.8639649550E+00
-2.8571459942E+00 -2.8503594276E+00 -2.8436050249E+00 -2.8368825579E+00
-2.8301918008E+00 -2.8235325296E+00 -2.8169045226E+00 -2.8103075601E+00
-2.8037414247E+00 -2.7972059006E+00 -2.7907007743E+00 -2.7842258342E+00
-2.7777808707E+00 -2.7713656760E+00 -2.7649800445E+00 -2.7586237722E+00
-2.7522966571E+00 -2.7459984990E+00 -2.7397290997E+00 -2.7334882624E+00
-2.7272757926E+00 -2.7210914973E+00 -2.7149351851E+00 -2.7088066666E+00
-2.7027057540E+00 -2.6966322613E+00 -2.6905860038E+00 -2.6845667989E+00
-2.6785744654E+00 -2.6726088238E+00 -2.6666696961E+00 -2.6607569059E+00
-2.6548702784E+00 -2.6490096404E+00 -2.6431748201E+00 -2.6373656473E+00
-2.6315819533E+00 -2.6258235708E+00 -2.6200903339E+00 -2.6143820784E+00
-2.6086986414E+00 -2.6030398612E+00 -2.5974055779E+00 -2.5917956326E+00
-2.5862098681E+00 -2.5806481283E+00 -2.5751102585E+00 -2.5695961054E+00
-2.5641055169E+00 -2.5586383425E+00 -2.5531944325E+00 -2.5477736388E+00
-2.5423758144E+00 -2.5370008138E+00 -2.5316484924E+00 -2.5263187070E+00
-2.5210113156E+00 -2.5157261773E+00 -2.5104631525E+00 -2.5052221026E+00
-2.5000028903E+00 -2.4948053795E+00 -2.4896294350E+00 -2.4844749228E+00
-2.4793417103E+00 -2.4742296655E+00 -2.4691386578E+00 -2.4640685577E+00
-2.4590192366E+00 -2.4539905671E+00 -2.4489824226E+00 -2.4439946778E+00
-2.4390272083E+00 -2.4340798907E+00 -2.4291526026E+00 -2.4242452227E+00
-2.4193576306E+00 -2.4144897067E+00 -2.4096413326E+00 -2.4048123908E+00
-2.4000027647E+00 -2.3952123386E+00 -2.3904409978E+00 -2.3856886284E+00
-2.3809551176E+00 -2.3762403532E+00 -2.3715442242E+00 -2.3668666203E+00
-2.3622074321E+00 -2.3575665510E+00 -2.3529438694E+00 -2.3483392803E+00
-2.3437526779E+00 -2.3391839569E+00 -2.3346330129E+00 -2.3300997425E+00
-2.3255840427E+00 -2.3210858118E+00 -2.3166049484E+00 -2.3121413523E+00
-2.3076949238E+00 -2.3032655641E+00 -2.2988531750E+00 -2.2944576592E+00
-2.2900789201E+00 -2.2857168619E+00 -2.2813713894E+00 -2.2770424082E+00
-2.2727298245E+00 -2.2684335455E+00 -2.2641534788E+00 -2.2598895328E+00
-2.2556416166E+00 -2.2514096400E+00 -2.2471935134E+00 -2.2429931480E+00
-2.2388084555E+00 -2.2346393485E+00 -2.2304857399E+00 -2.2263475435E+00
-2.2222246738E+00 -2.2181170456E+00 -2.2140245747E+00 -2.2099471773E+00
-2.2058847703E+00 -2.2018372711E+00 -2.1978045980E+00 -2.1937866694E+00
-2.1897834048E+00 -2.1857947239E+00 -2.1818205474E+00 -2.1778607961E+00
-2.1739153916E+00 -2.1699842563E+00 -2.1660673127E+00 -2.1621644842E+00
-2.1582756946E+00 -2.1544008683E+00 -2.1505399302E+00 -2.1466928058E+00
-2.1428594211E+00 -2.1390397026E+00 -2.1352335774E+00 -2.1314409730E+00
-2.1276618176E+00 -2.1238960396E+00 -2.1201435683E+00 -2.1164043332E+00
-2.1126782643E+00 -2.1089652923E+00 -2.1052653483E+00 -2.1015783637E+00
-2.0979042707E+00 -2.0942430017E+00 -2.0905944897E+00 -2.0869586682E+00
-2.0833354710E+00 -2.0797248326E+00 -2.0761266876E+00 -2.0725409715E+00
-2.0689676199E+00 -2.0654065690E+00 -2.0618577553E+00 -2.0583211159E+00
-2.0547965883E+00 -2.0512841103E+00 -2.0477836203E+00 -2.0442950570E+00
-2.0408183595E+00 -2.0373534674E+00 -2.0339003207E+00 -2.0304588598E+00
-2.0270290254E+00 -2.0236107587E+00 -2.0202040014E+00 -2.0168086953E+00
-2.0134247828E+00 -2.0100522067E+00 -2.0066909101E+00 -2.0033408365E+00
-2.0000019299E+00 -1.9966741343E+00 -1.9933573946E+00 -1.9900516557E+00
-1.9867568629E+00 -1.9834729619E+00 -1.9801998989E+00 -1.9769376203E+00
-1.9736860729E+00 -1.9704452038E+00 -1.9672149604E+00 -1.9639952907E+00
-1.9607861428E+00 -1.9575874652E+00 -1.9543992067E+00 -1.9512213165E+00
-1.9480537441E+00 -1.9448964394E+00 -1.9417493525E+00 -1.9386124339E+00
-1.9354856344E+00 -1.9323689051E+00 -1.9292621974E+00 -1.9261654631E+00
-1.9230786542E+00 -1.9200017231E+00 -1.9169346225E+00 -1.9138773052E+00
-1.9108297247E+00 -1.9077918344E+00 -1.9047635881E+00 -1.9017449402E+00
-1.8987358449E+00 -1.8957362570E+00 -1.8927461315E+00 -1.8897654238E+00
-1.8867940893E+00 -1.8838320840E+00 -1.8808793640E+00 -1.8779358857E+00
-1.8750016057E+00 -1.8720764811E+00 -1.8691604690E+00 -1.8662535269E+00
-1.8633556126E+00 -1.8604666841E+00 -1.8575866996E+00 -1.8547156178E+00
-1.8518533973E+00 -1.8489999972E+00 -1.8461553767E+00 -1.8433194956E+00
-1.8404923134E+00 -1.8376737903E+00 -1.8348638866E+00 -1.8320625627E+00
-1.8292697795E+00 -1.8264854978E+00 -1.8237096791E+00 -1.8209422847E+00
-1.8181832763E+00 -1.8154326159E+00 -1.8126902657E+00 -1.8099561880E+00
-1.8072303455E+00 -1.8045127011E+00 -1.8018032177E+00 -1.7991018587E+00
-1.7964085877E+00 -1.7937233683E+00 -1.7910461644E+00 -1.7883769404E+00
-1.7857156604E+00 -1.7830622892E+00 -1.7804167914E+00 -1.7777791322E+00
-1.7751492767E+00 -1.7725271904E+00 -1.7699128389E+00 -1.7673061879E+00
-1.7647072036E+00 -1.7621158521E+00 -1.7595321000E+00 -1.7569559137E+00
-1.7543872601E+00 -1.7518261063E+00 -1.7492724193E+00 -1.7467261668E+00
-1.7441873161E+00 -1.7416558351E+00 -1.7391316917E+00 -1.7366148541E+00
-1.7341052906E+00 -1.7316029697E+00 -1.7291078602E+00 -1.7266199308E+00
-1.7241391506E+00 -1.7216654889E+00 -1.7191989151E+00 -1.7167393987E+00
-1.7142869095E+00 -1.7118414175E+00 -1.7094028927E+00 -1.7069713053E+00
-1.7045466259E+00 -1.7021288250E+00 -1.6997178734E+00 -1.6973137421E+00
-1.6949164021E+00 -1.6925258247E+00 -1.6901419814E+00 -1.6877648436E+00
-1.6853943832E+00 -1.6830305721E+00 -1.6806733823E+00 -1.6783227861E+00
-1.6759787558E+00 -1.6736412639E+00 -1.6713102832E+00 -1.6689857864E+00
-1.6666677466E+00 -1.6643561368E+00 -1.6620509304E+00 -1.6597521008E+00
-1.6574596216E+00 -1.6551734665E+00 -1.6528936093E+00 -1.6506200241E+00
-1.6483526850E+00 -1.6460915663E+00 -1.6438366425E+00 -1.6415878882E+00
-1.6393452779E+00 -1.6371087867E+00 -1.6348783895E+00 -1.6326540613E+00
-1.6304357776E+00 -1.6282235136E+00 -1.6260172450E+00 -1.6238169473E+00
-1.6216225964E+00 -1.6194341681E+00 -1.6172516386E+00 -1.6150749840E+00
-1.6129041807E+00 -1.6107392050E+00 -1.6085800336E+00 -1.6064266430E+00
-1.6042790103E+00 -1.6021371122E+00 -1.6000009258E+00 -1.5978704283E+00
-1.5957455971E+00 -1.5936264096E+00 -1.5915128432E+00 -1.5894048757E+00
-1.5873024848E+00 -1.5852056485E+00 -1.5831143448E+00 -1.5810285517E+00
-1.5789482476E+00 -1.5768734107E+00 -1.5748040197E+00 -1.5727400530E+00
-1.5706814894E+00 -1.5686283077E+00 -1.5665804867E+00 -1.5645380056E+00
-1.5625008435E+00 -1.5604689795E+00 -1.5584423932E+00 -1.5564210639E+00
-1.5544049712E+00 -1.5523940948E+00 -1.5503884145E+00 -1.5483879101E+00
-1.5463925617E+00 -1.5444023493E+00 -1.5424172532E+00 -1.5404372536E+00
-1.5384623309E+00 -1.5364924657E+00 -1.5345276385E+00 -1.5325678300E+00
-1.5306130211E+00 -1.5286631925E+00 -1.5267183254E+00 -1.5247784007E+00
-1.5228433997E+00 -1.5209133037E+00 -1.5189880940E+00 -1.5170677522E+00
-1.5151522596E+00 -1.5132415981E+00 -1.5113357493E+00 -1.5094346952E+00
-1.5075384175E+00 -1.5056468985E+00 -1.5037601200E+00 -1.5018780645E+00
-1.5000007140E+00 -1.4981280511E+00 -1.4962600582E+00 -1.4943967179E+00
-1.4925380127E+00 -1.4906839254E+00 -1.4888344389E+00 -1.4869895360E+00
-1.4851491997E+00 -1.4833134130E+00 -1.4814821592E+00 -1.4796554214E+00
-1.4778331830E+00 -1.4760154273E+00 -1.4742021379E+00 -1.4723932982E+00
-1.4705888921E+00 -1.4687889030E+00 -1.4669933150E+00 -1.4652021117E+00
-1.4634152773E+00 -1.4616327957E+00 -1.4598546510E+00 -1.4580808275E+00
-1.4563113094E+00 -1.4545460811E+00 -1.4527851269E+00 -1.4510284314E+00
-1.4492759791E+00 -1.4475277547E+00 -1.4457837429E+00 -1.4440439284E+00