<UPF version="2.0.1"><PP_INFO>This pseudopotential file has been produced using the code
ONCVPSP (Optimized Norm-Conservinng Vanderbilt PSeudopotential)
scalar-relativistic version 3.3.0 08/16/2017 by D. R. Hamann
The code is available through a link at URL www.mat-simresearch.com.
Documentation with the package provides a full discription of the
input data below.
While it is not required under the terms of the GNU GPL, it is
suggested that you cite D. R. Hamann, Phys. Rev. B 88, 085117 (2013)
in any publication using these pseudopotentials.<PP_INPUTFILE>
# ATOM AND REFERENCE CONFIGURATION
# atsym z nc nv iexc psfile
Pd 46.00 6 3 -116133 upf
#
# n l f energy (Ha)
1 0 2.00
2 0 2.00
2 1 6.00
3 0 2.00
3 1 6.00
3 2 10.00
4 0 2.00
4 1 6.00
4 2 10.00
#
# PSEUDOPOTENTIAL AND OPTIMIZATION
# lmax
2
#
# l, rc, ep, ncon, nbas, qcut
0 1.40000 -3.13281 4 7 8.80000
1 1.45000 -1.87940 4 7 8.80000
2 1.55000 -0.14886 4 7 8.80000
#
# LOCAL POTENTIAL
# lloc, lpopt, rc(5), dvloc0
4 5 1.40000 0.00000
#
# VANDERBILT-KLEINMAN-BYLANDER PROJECTORs
# l, nproj, debl
0 2 3.01166
1 2 1.87081
2 2 1.50000
#
# MODEL CORE CHARGE
# icmod, fcfact, rcfact
3 7.00000 1.23000
#
# LOG DERIVATIVE ANALYSIS
# epsh1, epsh2, depsh
-14.00 12.00 0.02
#
# OUTPUT GRID
# rlmax, drl
6.00 0.01
#
# TEST CONFIGURATIONS
# ncnf
0
# nvcnf
# n l f</PP_INPUTFILE></PP_INFO><PP_HEADER generated="Generated using ONCVPSP code by D. R. Hamann" author="anonymous" date="180301" comment="" element="Pd" pseudo_type="NC" relativistic="scalar" is_ultrasoft="F" is_paw="F" is_coulomb="F" has_so="F" has_wfc="F" has_gipaw="F" core_correction="T" functional="PBESOL" z_valence="   18.00" total_psenergy="  -2.56391116448E+02" rho_cutoff="   1.23700000000E+01" l_max="2" l_local="-1" mesh_size="  1238" number_of_wfc="3" number_of_proj="6"/><PP_MESH><PP_R type="real" size="1238" columns="8">
0.0000 0.0100 0.0200 0.0300 0.0400 0.0500 0.0600 0.0700
0.0800 0.0900 0.1000 0.1100 0.1200 0.1300 0.1400 0.1500
0.1600 0.1700 0.1800 0.1900 0.2000 0.2100 0.2200 0.2300
0.2400 0.2500 0.2600 0.2700 0.2800 0.2900 0.3000 0.3100
0.3200 0.3300 0.3400 0.3500 0.3600 0.3700 0.3800 0.3900
0.4000 0.4100 0.4200 0.4300 0.4400 0.4500 0.4600 0.4700
0.4800 0.4900 0.5000 0.5100 0.5200 0.5300 0.5400 0.5500
0.5600 0.5700 0.5800 0.5900 0.6000 0.6100 0.6200 0.6300
0.6400 0.6500 0.6600 0.6700 0.6800 0.6900 0.7000 0.7100
0.7200 0.7300 0.7400 0.7500 0.7600 0.7700 0.7800 0.7900
0.8000 0.8100 0.8200 0.8300 0.8400 0.8500 0.8600 0.8700
0.8800 0.8900 0.9000 0.9100 0.9200 0.9300 0.9400 0.9500
0.9600 0.9700 0.9800 0.9900 1.0000 1.0100 1.0200 1.0300
1.0400 1.0500 1.0600 1.0700 1.0800 1.0900 1.1000 1.1100
1.1200 1.1300 1.1400 1.1500 1.1600 1.1700 1.1800 1.1900
1.2000 1.2100 1.2200 1.2300 1.2400 1.2500 1.2600 1.2700
1.2800 1.2900 1.3000 1.3100 1.3200 1.3300 1.3400 1.3500
1.3600 1.3700 1.3800 1.3900 1.4000 1.4100 1.4200 1.4300
1.4400 1.4500 1.4600 1.4700 1.4800 1.4900 1.5000 1.5100
1.5200 1.5300 1.5400 1.5500 1.5600 1.5700 1.5800 1.5900
1.6000 1.6100 1.6200 1.6300 1.6400 1.6500 1.6600 1.6700
1.6800 1.6900 1.7000 1.7100 1.7200 1.7300 1.7400 1.7500
1.7600 1.7700 1.7800 1.7900 1.8000 1.8100 1.8200 1.8300
1.8400 1.8500 1.8600 1.8700 1.8800 1.8900 1.9000 1.9100
1.9200 1.9300 1.9400 1.9500 1.9600 1.9700 1.9800 1.9900
2.0000 2.0100 2.0200 2.0300 2.0400 2.0500 2.0600 2.0700
2.0800 2.0900 2.1000 2.1100 2.1200 2.1300 2.1400 2.1500
2.1600 2.1700 2.1800 2.1900 2.2000 2.2100 2.2200 2.2300
2.2400 2.2500 2.2600 2.2700 2.2800 2.2900 2.3000 2.3100
2.3200 2.3300 2.3400 2.3500 2.3600 2.3700 2.3800 2.3900
2.4000 2.4100 2.4200 2.4300 2.4400 2.4500 2.4600 2.4700
2.4800 2.4900 2.5000 2.5100 2.5200 2.5300 2.5400 2.5500
2.5600 2.5700 2.5800 2.5900 2.6000 2.6100 2.6200 2.6300
2.6400 2.6500 2.6600 2.6700 2.6800 2.6900 2.7000 2.7100
2.7200 2.7300 2.7400 2.7500 2.7600 2.7700 2.7800 2.7900
2.8000 2.8100 2.8200 2.8300 2.8400 2.8500 2.8600 2.8700
2.8800 2.8900 2.9000 2.9100 2.9200 2.9300 2.9400 2.9500
2.9600 2.9700 2.9800 2.9900 3.0000 3.0100 3.0200 3.0300
3.0400 3.0500 3.0600 3.0700 3.0800 3.0900 3.1000 3.1100
3.1200 3.1300 3.1400 3.1500 3.1600 3.1700 3.1800 3.1900
3.2000 3.2100 3.2200 3.2300 3.2400 3.2500 3.2600 3.2700
3.2800 3.2900 3.3000 3.3100 3.3200 3.3300 3.3400 3.3500
3.3600 3.3700 3.3800 3.3900 3.4000 3.4100 3.4200 3.4300
3.4400 3.4500 3.4600 3.4700 3.4800 3.4900 3.5000 3.5100
3.5200 3.5300 3.5400 3.5500 3.5600 3.5700 3.5800 3.5900
3.6000 3.6100 3.6200 3.6300 3.6400 3.6500 3.6600 3.6700
3.6800 3.6900 3.7000 3.7100 3.7200 3.7300 3.7400 3.7500
3.7600 3.7700 3.7800 3.7900 3.8000 3.8100 3.8200 3.8300
3.8400 3.8500 3.8600 3.8700 3.8800 3.8900 3.9000 3.9100
3.9200 3.9300 3.9400 3.9500 3.9600 3.9700 3.9800 3.9900
4.0000 4.0100 4.0200 4.0300 4.0400 4.0500 4.0600 4.0700
4.0800 4.0900 4.1000 4.1100 4.1200 4.1300 4.1400 4.1500
4.1600 4.1700 4.1800 4.1900 4.2000 4.2100 4.2200 4.2300
4.2400 4.2500 4.2600 4.2700 4.2800 4.2900 4.3000 4.3100
4.3200 4.3300 4.3400 4.3500 4.3600 4.3700 4.3800 4.3900
4.4000 4.4100 4.4200 4.4300 4.4400 4.4500 4.4600 4.4700
4.4800 4.4900 4.5000 4.5100 4.5200 4.5300 4.5400 4.5500
4.5600 4.5700 4.5800 4.5900 4.6000 4.6100 4.6200 4.6300
4.6400 4.6500 4.6600 4.6700 4.6800 4.6900 4.7000 4.7100
4.7200 4.7300 4.7400 4.7500 4.7600 4.7700 4.7800 4.7900
4.8000 4.8100 4.8200 4.8300 4.8400 4.8500 4.8600 4.8700
4.8800 4.8900 4.9000 4.9100 4.9200 4.9300 4.9400 4.9500
4.9600 4.9700 4.9800 4.9900 5.0000 5.0100 5.0200 5.0300
5.0400 5.0500 5.0600 5.0700 5.0800 5.0900 5.1000 5.1100
5.1200 5.1300 5.1400 5.1500 5.1600 5.1700 5.1800 5.1900
5.2000 5.2100 5.2200 5.2300 5.2400 5.2500 5.2600 5.2700
5.2800 5.2900 5.3000 5.3100 5.3200 5.3300 5.3400 5.3500
5.3600 5.3700 5.3800 5.3900 5.4000 5.4100 5.4200 5.4300
5.4400 5.4500 5.4600 5.4700 5.4800 5.4900 5.5000 5.5100
5.5200 5.5300 5.5400 5.5500 5.5600 5.5700 5.5800 5.5900
5.6000 5.6100 5.6200 5.6300 5.6400 5.6500 5.6600 5.6700
5.6800 5.6900 5.7000 5.7100 5.7200 5.7300 5.7400 5.7500
5.7600 5.7700 5.7800 5.7900 5.8000 5.8100 5.8200 5.8300
5.8400 5.8500 5.8600 5.8700 5.8800 5.8900 5.9000 5.9100
5.9200 5.9300 5.9400 5.9500 5.9600 5.9700 5.9800 5.9900
6.0000 6.0100 6.0200 6.0300 6.0400 6.0500 6.0600 6.0700
6.0800 6.0900 6.1000 6.1100 6.1200 6.1300 6.1400 6.1500
6.1600 6.1700 6.1800 6.1900 6.2000 6.2100 6.2200 6.2300
6.2400 6.2500 6.2600 6.2700 6.2800 6.2900 6.3000 6.3100
6.3200 6.3300 6.3400 6.3500 6.3600 6.3700 6.3800 6.3900
6.4000 6.4100 6.4200 6.4300 6.4400 6.4500 6.4600 6.4700
6.4800 6.4900 6.5000 6.5100 6.5200 6.5300 6.5400 6.5500
6.5600 6.5700 6.5800 6.5900 6.6000 6.6100 6.6200 6.6300
6.6400 6.6500 6.6600 6.6700 6.6800 6.6900 6.7000 6.7100
6.7200 6.7300 6.7400 6.7500 6.7600 6.7700 6.7800 6.7900
6.8000 6.8100 6.8200 6.8300 6.8400 6.8500 6.8600 6.8700
6.8800 6.8900 6.9000 6.9100 6.9200 6.9300 6.9400 6.9500
6.9600 6.9700 6.9800 6.9900 7.0000 7.0100 7.0200 7.0300
7.0400 7.0500 7.0600 7.0700 7.0800 7.0900 7.1000 7.1100
7.1200 7.1300 7.1400 7.1500 7.1600 7.1700 7.1800 7.1900
7.2000 7.2100 7.2200 7.2300 7.2400 7.2500 7.2600 7.2700
7.2800 7.2900 7.3000 7.3100 7.3200 7.3300 7.3400 7.3500
7.3600 7.3700 7.3800 7.3900 7.4000 7.4100 7.4200 7.4300
7.4400 7.4500 7.4600 7.4700 7.4800 7.4900 7.5000 7.5100
7.5200 7.5300 7.5400 7.5500 7.5600 7.5700 7.5800 7.5900
7.6000 7.6100 7.6200 7.6300 7.6400 7.6500 7.6600 7.6700
7.6800 7.6900 7.7000 7.7100 7.7200 7.7300 7.7400 7.7500
7.7600 7.7700 7.7800 7.7900 7.8000 7.8100 7.8200 7.8300
7.8400 7.8500 7.8600 7.8700 7.8800 7.8900 7.9000 7.9100
7.9200 7.9300 7.9400 7.9500 7.9600 7.9700 7.9800 7.9900
8.0000 8.0100 8.0200 8.0300 8.0400 8.0500 8.0600 8.0700
8.0800 8.0900 8.1000 8.1100 8.1200 8.1300 8.1400 8.1500
8.1600 8.1700 8.1800 8.1900 8.2000 8.2100 8.2200 8.2300
8.2400 8.2500 8.2600 8.2700 8.2800 8.2900 8.3000 8.3100
8.3200 8.3300 8.3400 8.3500 8.3600 8.3700 8.3800 8.3900
8.4000 8.4100 8.4200 8.4300 8.4400 8.4500 8.4600 8.4700
8.4800 8.4900 8.5000 8.5100 8.5200 8.5300 8.5400 8.5500
8.5600 8.5700 8.5800 8.5900 8.6000 8.6100 8.6200 8.6300
8.6400 8.6500 8.6600 8.6700 8.6800 8.6900 8.7000 8.7100
8.7200 8.7300 8.7400 8.7500 8.7600 8.7700 8.7800 8.7900
8.8000 8.8100 8.8200 8.8300 8.8400 8.8500 8.8600 8.8700
8.8800 8.8900 8.9000 8.9100 8.9200 8.9300 8.9400 8.9500
8.9600 8.9700 8.9800 8.9900 9.0000 9.0100 9.0200 9.0300
9.0400 9.0500 9.0600 9.0700 9.0800 9.0900 9.1000 9.1100
9.1200 9.1300 9.1400 9.1500 9.1600 9.1700 9.1800 9.1900
9.2000 9.2100 9.2200 9.2300 9.2400 9.2500 9.2600 9.2700
9.2800 9.2900 9.3000 9.3100 9.3200 9.3300 9.3400 9.3500
9.3600 9.3700 9.3800 9.3900 9.4000 9.4100 9.4200 9.4300
9.4400 9.4500 9.4600 9.4700 9.4800 9.4900 9.5000 9.5100
9.5200 9.5300 9.5400 9.5500 9.5600 9.5700 9.5800 9.5900
9.6000 9.6100 9.6200 9.6300 9.6400 9.6500 9.6600 9.6700
9.6800 9.6900 9.7000 9.7100 9.7200 9.7300 9.7400 9.7500
9.7600 9.7700 9.7800 9.7900 9.8000 9.8100 9.8200 9.8300
9.8400 9.8500 9.8600 9.8700 9.8800 9.8900 9.9000 9.9100
9.9200 9.9300 9.9400 9.9500 9.9600 9.9700 9.9800 9.9900
10.0000 10.0100 10.0200 10.0300 10.0400 10.0500 10.0600 10.0700
10.0800 10.0900 10.1000 10.1100 10.1200 10.1300 10.1400 10.1500
10.1600 10.1700 10.1800 10.1900 10.2000 10.2100 10.2200 10.2300
10.2400 10.2500 10.2600 10.2700 10.2800 10.2900 10.3000 10.3100
10.3200 10.3300 10.3400 10.3500 10.3600 10.3700 10.3800 10.3900
10.4000 10.4100 10.4200 10.4300 10.4400 10.4500 10.4600 10.4700
10.4800 10.4900 10.5000 10.5100 10.5200 10.5300 10.5400 10.5500
10.5600 10.5700 10.5800 10.5900 10.6000 10.6100 10.6200 10.6300
10.6400 10.6500 10.6600 10.6700 10.6800 10.6900 10.7000 10.7100
10.7200 10.7300 10.7400 10.7500 10.7600 10.7700 10.7800 10.7900
10.8000 10.8100 10.8200 10.8300 10.8400 10.8500 10.8600 10.8700
10.8800 10.8900 10.9000 10.9100 10.9200 10.9300 10.9400 10.9500
10.9600 10.9700 10.9800 10.9900 11.0000 11.0100 11.0200 11.0300
11.0400 11.0500 11.0600 11.0700 11.0800 11.0900 11.1000 11.1100
11.1200 11.1300 11.1400 11.1500 11.1600 11.1700 11.1800 11.1900
11.2000 11.2100 11.2200 11.2300 11.2400 11.2500 11.2600 11.2700
11.2800 11.2900 11.3000 11.3100 11.3200 11.3300 11.3400 11.3500
11.3600 11.3700 11.3800 11.3900 11.4000 11.4100 11.4200 11.4300
11.4400 11.4500 11.4600 11.4700 11.4800 11.4900 11.5000 11.5100
11.5200 11.5300 11.5400 11.5500 11.5600 11.5700 11.5800 11.5900
11.6000 11.6100 11.6200 11.6300 11.6400 11.6500 11.6600 11.6700
11.6800 11.6900 11.7000 11.7100 11.7200 11.7300 11.7400 11.7500
11.7600 11.7700 11.7800 11.7900 11.8000 11.8100 11.8200 11.8300
11.8400 11.8500 11.8600 11.8700 11.8800 11.8900 11.9000 11.9100
11.9200 11.9300 11.9400 11.9500 11.9600 11.9700 11.9800 11.9900
12.0000 12.0100 12.0200 12.0300 12.0400 12.0500 12.0600 12.0700
12.0800 12.0900 12.1000 12.1100 12.1200 12.1300 12.1400 12.1500
12.1600 12.1700 12.1800 12.1900 12.2000 12.2100 12.2200 12.2300
12.2400 12.2500 12.2600 12.2700 12.2800 12.2900 12.3000 12.3100
12.3200 12.3300 12.3400 12.3500 12.3600 12.3700</PP_R><PP_RAB type="real" size="1238" columns="8">
0.0100 0.0100 0.0100 0.0100 0.0100 0.0100 0.0100 0.0100
0.0100 0.0100 0.0100 0.0100 0.0100 0.0100 0.0100 0.0100
0.0100 0.0100 0.0100 0.0100 0.0100 0.0100 0.0100 0.0100
0.0100 0.0100 0.0100 0.0100 0.0100 0.0100 0.0100 0.0100
0.0100 0.0100 0.0100 0.0100 0.0100 0.0100 0.0100 0.0100
0.0100 0.0100 0.0100 0.0100 0.0100 0.0100 0.0100 0.0100
0.0100 0.0100 0.0100 0.0100 0.0100 0.0100 0.0100 0.0100
0.0100 0.0100 0.0100 0.0100 0.0100 0.0100 0.0100 0.0100
0.0100 0.0100 0.0100 0.0100 0.0100 0.0100 0.0100 0.0100
0.0100 0.0100 0.0100 0.0100 0.0100 0.0100 0.0100 0.0100
0.0100 0.0100 0.0100 0.0100 0.0100 0.0100 0.0100 0.0100
0.0100 0.0100 0.0100 0.0100 0.0100 0.0100 0.0100 0.0100
0.0100 0.0100 0.0100 0.0100 0.0100 0.0100 0.0100 0.0100
0.0100 0.0100 0.0100 0.0100 0.0100 0.0100 0.0100 0.0100
0.0100 0.0100 0.0100 0.0100 0.0100 0.0100 0.0100 0.0100
0.0100 0.0100 0.0100 0.0100 0.0100 0.0100 0.0100 0.0100
0.0100 0.0100 0.0100 0.0100 0.0100 0.0100 0.0100 0.0100
0.0100 0.0100 0.0100 0.0100 0.0100 0.0100 0.0100 0.0100
0.0100 0.0100 0.0100 0.0100 0.0100 0.0100 0.0100 0.0100
0.0100 0.0100 0.0100 0.0100 0.0100 0.0100 0.0100 0.0100
0.0100 0.0100 0.0100 0.0100 0.0100 0.0100 0.0100 0.0100
0.0100 0.0100 0.0100 0.0100 0.0100 0.0100 0.0100 0.0100
0.0100 0.0100 0.0100 0.0100 0.0100 0.0100 0.0100 0.0100
0.0100 0.0100 0.0100 0.0100 0.0100 0.0100 0.0100 0.0100
0.0100 0.0100 0.0100 0.0100 0.0100 0.0100 0.0100 0.0100
0.0100 0.0100 0.0100 0.0100 0.0100 0.0100 0.0100 0.0100
0.0100 0.0100 0.0100 0.0100 0.0100 0.0100 0.0100 0.0100
0.0100 0.0100 0.0100 0.0100 0.0100 0.0100 0.0100 0.0100
0.0100 0.0100 0.0100 0.0100 0.0100 0.0100 0.0100 0.0100
0.0100 0.0100 0.0100 0.0100 0.0100 0.0100 0.0100 0.0100
0.0100 0.0100 0.0100 0.0100 0.0100 0.0100 0.0100 0.0100
0.0100 0.0100 0.0100 0.0100 0.0100 0.0100 0.0100 0.0100
0.0100 0.0100 0.0100 0.0100 0.0100 0.0100 0.0100 0.0100
0.0100 0.0100 0.0100 0.0100 0.0100 0.0100 0.0100 0.0100
0.0100 0.0100 0.0100 0.0100 0.0100 0.0100 0.0100 0.0100
0.0100 0.0100 0.0100 0.0100 0.0100 0.0100 0.0100 0.0100
0.0100 0.0100 0.0100 0.0100 0.0100 0.0100 0.0100 0.0100
0.0100 0.0100 0.0100 0.0100 0.0100 0.0100 0.0100 0.0100
0.0100 0.0100 0.0100 0.0100 0.0100 0.0100 0.0100 0.0100
0.0100 0.0100 0.0100 0.0100 0.0100 0.0100 0.0100 0.0100
0.0100 0.0100 0.0100 0.0100 0.0100 0.0100 0.0100 0.0100
0.0100 0.0100 0.0100 0.0100 0.0100 0.0100 0.0100 0.0100
0.0100 0.0100 0.0100 0.0100 0.0100 0.0100 0.0100 0.0100
0.0100 0.0100 0.0100 0.0100 0.0100 0.0100 0.0100 0.0100
0.0100 0.0100 0.0100 0.0100 0.0100 0.0100 0.0100 0.0100
0.0100 0.0100 0.0100 0.0100 0.0100 0.0100 0.0100 0.0100
0.0100 0.0100 0.0100 0.0100 0.0100 0.0100 0.0100 0.0100
0.0100 0.0100 0.0100 0.0100 0.0100 0.0100 0.0100 0.0100
0.0100 0.0100 0.0100 0.0100 0.0100 0.0100 0.0100 0.0100
0.0100 0.0100 0.0100 0.0100 0.0100 0.0100 0.0100 0.0100
0.0100 0.0100 0.0100 0.0100 0.0100 0.0100 0.0100 0.0100
0.0100 0.0100 0.0100 0.0100 0.0100 0.0100 0.0100 0.0100
0.0100 0.0100 0.0100 0.0100 0.0100 0.0100 0.0100 0.0100
0.0100 0.0100 0.0100 0.0100 0.0100 0.0100 0.0100 0.0100
0.0100 0.0100 0.0100 0.0100 0.0100 0.0100 0.0100 0.0100
0.0100 0.0100 0.0100 0.0100 0.0100 0.0100 0.0100 0.0100
0.0100 0.0100 0.0100 0.0100 0.0100 0.0100 0.0100 0.0100
0.0100 0.0100 0.0100 0.0100 0.0100 0.0100 0.0100 0.0100
0.0100 0.0100 0.0100 0.0100 0.0100 0.0100 0.0100 0.0100
0.0100 0.0100 0.0100 0.0100 0.0100 0.0100 0.0100 0.0100
0.0100 0.0100 0.0100 0.0100 0.0100 0.0100 0.0100 0.0100
0.0100 0.0100 0.0100 0.0100 0.0100 0.0100 0.0100 0.0100
0.0100 0.0100 0.0100 0.0100 0.0100 0.0100 0.0100 0.0100
0.0100 0.0100 0.0100 0.0100 0.0100 0.0100 0.0100 0.0100
0.0100 0.0100 0.0100 0.0100 0.0100 0.0100 0.0100 0.0100
0.0100 0.0100 0.0100 0.0100 0.0100 0.0100 0.0100 0.0100
0.0100 0.0100 0.0100 0.0100 0.0100 0.0100 0.0100 0.0100
0.0100 0.0100 0.0100 0.0100 0.0100 0.0100 0.0100 0.0100
0.0100 0.0100 0.0100 0.0100 0.0100 0.0100 0.0100 0.0100
0.0100 0.0100 0.0100 0.0100 0.0100 0.0100 0.0100 0.0100
0.0100 0.0100 0.0100 0.0100 0.0100 0.0100 0.0100 0.0100
0.0100 0.0100 0.0100 0.0100 0.0100 0.0100 0.0100 0.0100
0.0100 0.0100 0.0100 0.0100 0.0100 0.0100 0.0100 0.0100
0.0100 0.0100 0.0100 0.0100 0.0100 0.0100 0.0100 0.0100
0.0100 0.0100 0.0100 0.0100 0.0100 0.0100 0.0100 0.0100
0.0100 0.0100 0.0100 0.0100 0.0100 0.0100 0.0100 0.0100
0.0100 0.0100 0.0100 0.0100 0.0100 0.0100 0.0100 0.0100
0.0100 0.0100 0.0100 0.0100 0.0100 0.0100 0.0100 0.0100
0.0100 0.0100 0.0100 0.0100 0.0100 0.0100 0.0100 0.0100
0.0100 0.0100 0.0100 0.0100 0.0100 0.0100 0.0100 0.0100
0.0100 0.0100 0.0100 0.0100 0.0100 0.0100 0.0100 0.0100
0.0100 0.0100 0.0100 0.0100 0.0100 0.0100 0.0100 0.0100
0.0100 0.0100 0.0100 0.0100 0.0100 0.0100 0.0100 0.0100
0.0100 0.0100 0.0100 0.0100 0.0100 0.0100 0.0100 0.0100
0.0100 0.0100 0.0100 0.0100 0.0100 0.0100 0.0100 0.0100
0.0100 0.0100 0.0100 0.0100 0.0100 0.0100 0.0100 0.0100
0.0100 0.0100 0.0100 0.0100 0.0100 0.0100 0.0100 0.0100
0.0100 0.0100 0.0100 0.0100 0.0100 0.0100 0.0100 0.0100
0.0100 0.0100 0.0100 0.0100 0.0100 0.0100 0.0100 0.0100
0.0100 0.0100 0.0100 0.0100 0.0100 0.0100 0.0100 0.0100
0.0100 0.0100 0.0100 0.0100 0.0100 0.0100 0.0100 0.0100
0.0100 0.0100 0.0100 0.0100 0.0100 0.0100 0.0100 0.0100
0.0100 0.0100 0.0100 0.0100 0.0100 0.0100 0.0100 0.0100
0.0100 0.0100 0.0100 0.0100 0.0100 0.0100 0.0100 0.0100
0.0100 0.0100 0.0100 0.0100 0.0100 0.0100 0.0100 0.0100
0.0100 0.0100 0.0100 0.0100 0.0100 0.0100 0.0100 0.0100
0.0100 0.0100 0.0100 0.0100 0.0100 0.0100 0.0100 0.0100
0.0100 0.0100 0.0100 0.0100 0.0100 0.0100 0.0100 0.0100
0.0100 0.0100 0.0100 0.0100 0.0100 0.0100 0.0100 0.0100
0.0100 0.0100 0.0100 0.0100 0.0100 0.0100 0.0100 0.0100
0.0100 0.0100 0.0100 0.0100 0.0100 0.0100 0.0100 0.0100
0.0100 0.0100 0.0100 0.0100 0.0100 0.0100 0.0100 0.0100
0.0100 0.0100 0.0100 0.0100 0.0100 0.0100 0.0100 0.0100
0.0100 0.0100 0.0100 0.0100 0.0100 0.0100 0.0100 0.0100
0.0100 0.0100 0.0100 0.0100 0.0100 0.0100 0.0100 0.0100
0.0100 0.0100 0.0100 0.0100 0.0100 0.0100 0.0100 0.0100
0.0100 0.0100 0.0100 0.0100 0.0100 0.0100 0.0100 0.0100
0.0100 0.0100 0.0100 0.0100 0.0100 0.0100 0.0100 0.0100
0.0100 0.0100 0.0100 0.0100 0.0100 0.0100 0.0100 0.0100
0.0100 0.0100 0.0100 0.0100 0.0100 0.0100 0.0100 0.0100
0.0100 0.0100 0.0100 0.0100 0.0100 0.0100 0.0100 0.0100
0.0100 0.0100 0.0100 0.0100 0.0100 0.0100 0.0100 0.0100
0.0100 0.0100 0.0100 0.0100 0.0100 0.0100 0.0100 0.0100
0.0100 0.0100 0.0100 0.0100 0.0100 0.0100 0.0100 0.0100
0.0100 0.0100 0.0100 0.0100 0.0100 0.0100 0.0100 0.0100
0.0100 0.0100 0.0100 0.0100 0.0100 0.0100 0.0100 0.0100
0.0100 0.0100 0.0100 0.0100 0.0100 0.0100 0.0100 0.0100
0.0100 0.0100 0.0100 0.0100 0.0100 0.0100 0.0100 0.0100
0.0100 0.0100 0.0100 0.0100 0.0100 0.0100 0.0100 0.0100
0.0100 0.0100 0.0100 0.0100 0.0100 0.0100 0.0100 0.0100
0.0100 0.0100 0.0100 0.0100 0.0100 0.0100 0.0100 0.0100
0.0100 0.0100 0.0100 0.0100 0.0100 0.0100 0.0100 0.0100
0.0100 0.0100 0.0100 0.0100 0.0100 0.0100 0.0100 0.0100
0.0100 0.0100 0.0100 0.0100 0.0100 0.0100 0.0100 0.0100
0.0100 0.0100 0.0100 0.0100 0.0100 0.0100 0.0100 0.0100
0.0100 0.0100 0.0100 0.0100 0.0100 0.0100 0.0100 0.0100
0.0100 0.0100 0.0100 0.0100 0.0100 0.0100 0.0100 0.0100
0.0100 0.0100 0.0100 0.0100 0.0100 0.0100 0.0100 0.0100
0.0100 0.0100 0.0100 0.0100 0.0100 0.0100 0.0100 0.0100
0.0100 0.0100 0.0100 0.0100 0.0100 0.0100 0.0100 0.0100
0.0100 0.0100 0.0100 0.0100 0.0100 0.0100 0.0100 0.0100
0.0100 0.0100 0.0100 0.0100 0.0100 0.0100 0.0100 0.0100
0.0100 0.0100 0.0100 0.0100 0.0100 0.0100 0.0100 0.0100
0.0100 0.0100 0.0100 0.0100 0.0100 0.0100 0.0100 0.0100
0.0100 0.0100 0.0100 0.0100 0.0100 0.0100 0.0100 0.0100
0.0100 0.0100 0.0100 0.0100 0.0100 0.0100 0.0100 0.0100
0.0100 0.0100 0.0100 0.0100 0.0100 0.0100 0.0100 0.0100
0.0100 0.0100 0.0100 0.0100 0.0100 0.0100 0.0100 0.0100
0.0100 0.0100 0.0100 0.0100 0.0100 0.0100 0.0100 0.0100
0.0100 0.0100 0.0100 0.0100 0.0100 0.0100 0.0100 0.0100
0.0100 0.0100 0.0100 0.0100 0.0100 0.0100 0.0100 0.0100
0.0100 0.0100 0.0100 0.0100 0.0100 0.0100 0.0100 0.0100
0.0100 0.0100 0.0100 0.0100 0.0100 0.0100 0.0100 0.0100
0.0100 0.0100 0.0100 0.0100 0.0100 0.0100 0.0100 0.0100
0.0100 0.0100 0.0100 0.0100 0.0100 0.0100 0.0100 0.0100
0.0100 0.0100 0.0100 0.0100 0.0100 0.0100 0.0100 0.0100
0.0100 0.0100 0.0100 0.0100 0.0100 0.0100 0.0100 0.0100
0.0100 0.0100 0.0100 0.0100 0.0100 0.0100 0.0100 0.0100
0.0100 0.0100 0.0100 0.0100 0.0100 0.0100 0.0100 0.0100
0.0100 0.0100 0.0100 0.0100 0.0100 0.0100 0.0100 0.0100
0.0100 0.0100 0.0100 0.0100 0.0100 0.0100 0.0100 0.0100
0.0100 0.0100 0.0100 0.0100 0.0100 0.0100 0.0100 0.0100
0.0100 0.0100 0.0100 0.0100 0.0100 0.0100 0.0100 0.0100
0.0100 0.0100 0.0100 0.0100 0.0100 0.0100 0.0100 0.0100
0.0100 0.0100 0.0100 0.0100 0.0100 0.0100</PP_RAB></PP_MESH><PP_LOCAL type="real" size="1238" columns="4">
-5.1564790752E+01 -5.1563428405E+01 -5.1559330577E+01 -5.1552497414E+01
-5.1542926468E+01 -5.1530613627E+01 -5.1515553456E+01 -5.1497739218E+01
-5.1477162847E+01 -5.1453814912E+01 -5.1427684568E+01 -5.1398759514E+01
-5.1367025932E+01 -5.1332468442E+01 -5.1295070044E+01 -5.1254812068E+01
-5.1211674123E+01 -5.1165634056E+01 -5.1116667904E+01 -5.1064749868E+01
-5.1009852277E+01 -5.0951945573E+01 -5.0890998299E+01 -5.0826977099E+01
-5.0759846727E+01 -5.0689570068E+01 -5.0616108172E+01 -5.0539420298E+01
-5.0459463972E+01 -5.0376195057E+01 -5.0289567837E+01 -5.0199535117E+01
-5.0106048329E+01 -5.0009057659E+01 -4.9908512183E+01 -4.9804360022E+01
-4.9696548505E+01 -4.9585024349E+01 -4.9469733861E+01 -4.9350623139E+01
-4.9227638308E+01 -4.9100725765E+01 -4.8969832435E+01 -4.8834906064E+01
-4.8695895520E+01 -4.8552751120E+01 -4.8405424987E+01 -4.8253871429E+01
-4.8098047349E+01 -4.7937912687E+01 -4.7773430888E+01 -4.7604569413E+01
-4.7431300272E+01 -4.7253600592E+01 -4.7071453217E+01 -4.6884847322E+01
-4.6693779044E+01 -4.6498252119E+01 -4.6298278503E+01 -4.6093878969E+01
-4.5885083647E+01 -4.5671932505E+01 -4.5454475726E+01 -4.5232773968E+01
-4.5006898494E+01 -4.4776931142E+01 -4.4542964129E+01 -4.4305099690E+01
-4.4063449560E+01 -4.3818134300E+01 -4.3569282510E+01 -4.3317029945E+01
-4.3061518571E+01 -4.2802895611E+01 -4.2541312594E+01 -4.2276924465E+01
-4.2009888762E+01 -4.1740364892E+01 -4.1468513508E+01 -4.1194495996E+01
-4.0918474068E+01 -4.0640609440E+01 -4.0361063603E+01 -4.0079997642E+01
-3.9797572113E+01 -3.9513946946E+01 -3.9229281360E+01 -3.8943733787E+01
-3.8657461778E+01 -3.8370621903E+01 -3.8083369625E+01 -3.7795859146E+01
-3.7508243241E+01 -3.7220673050E+01 -3.6933297867E+01 -3.6646264897E+01
-3.6359719007E+01 -3.6073802463E+01 -3.5788654671E+01 -3.5504411911E+01
-3.5221207079E+01 -3.4939169445E+01 -3.4658424419E+01 -3.4379093337E+01
-3.4101293267E+01 -3.3825136838E+01 -3.3550732088E+01 -3.3278182344E+01
-3.3007586112E+01 -3.2739037002E+01 -3.2472623671E+01 -3.2208429779E+01
-3.1946533975E+01 -3.1687009890E+01 -3.1429926150E+01 -3.1175346400E+01
-3.0923329342E+01 -3.0673928774E+01 -3.0427193649E+01 -3.0183168126E+01
-2.9941891638E+01 -2.9703398952E+01 -2.9467720238E+01 -2.9234881136E+01
-2.9004902817E+01 -2.8777802053E+01 -2.8553591272E+01 -2.8332278615E+01
-2.8113867990E+01 -2.7898359115E+01 -2.7685747556E+01 -2.7476024764E+01
-2.7269178092E+01 -2.7065190813E+01 -2.6864042128E+01 -2.6665707161E+01
-2.6470156956E+01 -2.6277358399E+01 -2.6087274113E+01 -2.5899862590E+01
-2.5715078523E+01 -2.5532873308E+01 -2.5353195978E+01 -2.5175994658E+01
-2.5001217532E+01 -2.4828814028E+01 -2.4658738781E+01 -2.4490951907E+01
-2.4325417717E+01 -2.4162101036E+01 -2.4000961818E+01 -2.3841958642E+01
-2.3685050302E+01 -2.3530196799E+01 -2.3377359586E+01 -2.3226499086E+01
-2.3077575128E+01 -2.2930547939E+01 -2.2785379106E+01 -2.2642033319E+01
-2.2500477368E+01 -2.2360679503E+01 -2.2222608767E+01 -2.2086234089E+01
-2.1951524936E+01 -2.1818451577E+01 -2.1686984932E+01 -2.1557096631E+01
-2.1428758858E+01 -2.1301944261E+01 -2.1176626029E+01 -2.1052777902E+01
-2.0930374130E+01 -2.0809389459E+01 -2.0689799138E+01 -2.0571578909E+01
-2.0454705007E+01 -2.0339154157E+01 -2.0224903572E+01 -2.0111930952E+01
-2.0000214486E+01 -1.9889732844E+01 -1.9780465182E+01 -1.9672391135E+01
-1.9565490816E+01 -1.9459744811E+01 -1.9355134169E+01 -1.9251640404E+01
-1.9149245478E+01 -1.9047931797E+01 -1.8947682198E+01 -1.8848479939E+01
-1.8750308685E+01 -1.8653152496E+01 -1.8556995811E+01 -1.8461823434E+01
-1.8367620520E+01 -1.8274372555E+01 -1.8182065347E+01 -1.8090685005E+01
-1.8000217927E+01 -1.7910650784E+01 -1.7821970505E+01 -1.7734164268E+01
-1.7647219481E+01 -1.7561123776E+01 -1.7475864998E+01 -1.7391431194E+01
-1.7307810605E+01 -1.7224991661E+01 -1.7142962972E+01 -1.7061713330E+01
-1.6981231697E+01 -1.6901507209E+01 -1.6822529171E+01 -1.6744287057E+01
-1.6666770509E+01 -1.6589969339E+01 -1.6513873529E+01 -1.6438473233E+01
-1.6363758776E+01 -1.6289720647E+01 -1.6216349510E+01 -1.6143636218E+01
-1.6071571779E+01 -1.6000147360E+01 -1.5929354404E+01 -1.5859184665E+01
-1.5789630006E+01 -1.5720681809E+01 -1.5652331405E+01 -1.5584570363E+01
-1.5517390882E+01 -1.5450785595E+01 -1.5384747712E+01 -1.5319271672E+01
-1.5254351979E+01 -1.5189982533E+01 -1.5126156143E+01 -1.5062865487E+01
-1.5000103222E+01 -1.4937862133E+01 -1.4876135044E+01 -1.4814915542E+01
-1.4754197577E+01 -1.4693975388E+01 -1.4634242902E+01 -1.4574994140E+01
-1.4516223175E+01 -1.4457924278E+01 -1.4400091786E+01 -1.4342720123E+01
-1.4285803803E+01 -1.4229337426E+01 -1.4173315679E+01 -1.4117733330E+01
-1.4062585231E+01 -1.4007866310E+01 -1.3953571579E+01 -1.3899696123E+01
-1.3846235104E+01 -1.3793183759E+01 -1.3740537396E+01 -1.3688291395E+01
-1.3636441208E+01 -1.3584982352E+01 -1.3533910414E+01 -1.3483221047E+01
-1.3432909968E+01 -1.3382972957E+01 -1.3333405859E+01 -1.3284204578E+01
-1.3235365079E+01 -1.3186883387E+01 -1.3138755583E+01 -1.3090977807E+01
-1.3043546255E+01 -1.2996457176E+01 -1.2949706874E+01 -1.2903291707E+01
-1.2857208084E+01 -1.2811452464E+01 -1.2766021359E+01 -1.2720911328E+01
-1.2676118979E+01 -1.2631640968E+01 -1.2587473998E+01 -1.2543614818E+01
-1.2500060221E+01 -1.2456807045E+01 -1.2413852172E+01 -1.2371192526E+01
-1.2328825075E+01 -1.2286746826E+01 -1.2244954829E+01 -1.2203446171E+01
-1.2162217982E+01 -1.2121267428E+01 -1.2080591715E+01 -1.2040188083E+01
-1.2000053813E+01 -1.1960186220E+01 -1.1920582654E+01 -1.1881240502E+01
-1.1842157183E+01 -1.1803330151E+01 -1.1764756894E+01 -1.1726434932E+01
-1.1688361816E+01 -1.1650535132E+01 -1.1612952493E+01 -1.1575611547E+01
-1.1538509967E+01 -1.1501645462E+01 -1.1465015764E+01 -1.1428618639E+01
-1.1392451877E+01 -1.1356513299E+01 -1.1320800752E+01 -1.1285312110E+01
-1.1250045274E+01 -1.1214998171E+01 -1.1180168753E+01 -1.1145555000E+01
-1.1111154913E+01 -1.1076966521E+01 -1.1042987875E+01 -1.1009217050E+01
-1.0975652147E+01 -1.0942291287E+01 -1.0909132616E+01 -1.0876174300E+01
-1.0843414529E+01 -1.0810851515E+01 -1.0778483490E+01 -1.0746308708E+01
-1.0714325444E+01 -1.0682531992E+01 -1.0650926667E+01 -1.0619507806E+01
-1.0588273762E+01 -1.0557222910E+01 -1.0526353642E+01 -1.0495664371E+01
-1.0465153526E+01 -1.0434819557E+01 -1.0404660928E+01 -1.0374676125E+01
-1.0344863649E+01 -1.0315222019E+01 -1.0285749770E+01 -1.0256445454E+01
-1.0227307640E+01 -1.0198334913E+01 -1.0169525875E+01 -1.0140879141E+01
-1.0112393344E+01 -1.0084067131E+01 -1.0055899166E+01 -1.0027888126E+01
-1.0000032702E+01 -9.9723316030E+00 -9.9447835484E+00 -9.9173872739E+00
-9.8901415285E+00 -9.8630450750E+00 -9.8360966897E+00 -9.8092951623E+00
-9.7826392954E+00 -9.7561279048E+00 -9.7297598192E+00 -9.7035338797E+00
-9.6774489400E+00 -9.6515038661E+00 -9.6256975359E+00 -9.6000288397E+00
-9.5744966791E+00 -9.5490999678E+00 -9.5238376308E+00 -9.4987086044E+00
-9.4737118362E+00 -9.4488462847E+00 -9.4241109195E+00 -9.3995047209E+00
-9.3750266797E+00 -9.3506757974E+00 -9.3264510856E+00 -9.3023515664E+00
-9.2783762716E+00 -9.2545242434E+00 -9.2307945335E+00 -9.2071862034E+00
-9.1836983243E+00 -9.1603299766E+00 -9.1370802502E+00 -9.1139482443E+00
-9.0909330670E+00 -9.0680338355E+00 -9.0452496759E+00 -9.0225797229E+00
-9.0000231200E+00 -8.9775790193E+00 -8.9552465812E+00 -8.9330249745E+00
-8.9109133761E+00 -8.8889109713E+00 -8.8670169532E+00 -8.8452305228E+00
-8.8235508892E+00 -8.8019772689E+00 -8.7805088864E+00 -8.7591449734E+00
-8.7378847693E+00 -8.7167275207E+00 -8.6956724817E+00 -8.6747189133E+00
-8.6538660839E+00 -8.6331132686E+00 -8.6124597498E+00 -8.5919048165E+00
-8.5714477645E+00 -8.5510878963E+00 -8.5308245211E+00 -8.5106569545E+00
-8.4905845187E+00 -8.4706065422E+00 -8.4507223598E+00 -8.4309313124E+00
-8.4112327475E+00 -8.3916260181E+00 -8.3721104836E+00 -8.3526855093E+00
-8.3333504663E+00 -8.3141047314E+00 -8.2949476875E+00 -8.2758787228E+00
-8.2568972313E+00 -8.2380026126E+00 -8.2191942715E+00 -8.2004716186E+00
-8.1818340696E+00 -8.1632810455E+00 -8.1448119728E+00 -8.1264262828E+00
-8.1081234122E+00 -8.0899028027E+00 -8.0717639009E+00 -8.0537061585E+00
-8.0357290321E+00 -8.0178319829E+00 -8.0000144772E+00 -7.9822759858E+00
-7.9646159844E+00 -7.9470339531E+00 -7.9295293767E+00 -7.9121017446E+00
-7.8947505504E+00 -7.8774752926E+00 -7.8602754736E+00 -7.8431506004E+00
-7.8261001842E+00 -7.8091237405E+00 -7.7922207890E+00 -7.7753908535E+00
-7.7586334619E+00 -7.7419481461E+00 -7.7253344422E+00 -7.7087918902E+00
-7.6923200339E+00 -7.6759184211E+00 -7.6595866035E+00 -7.6433241365E+00
-7.6271305794E+00 -7.6110054950E+00 -7.5949484501E+00 -7.5789590148E+00
-7.5630367630E+00 -7.5471812723E+00 -7.5313921237E+00 -7.5156689015E+00
-7.5000111939E+00 -7.4844185921E+00 -7.4688906910E+00 -7.4534270886E+00
-7.4380273864E+00 -7.4226911893E+00 -7.4074181050E+00 -7.3922077450E+00
-7.3770597235E+00 -7.3619736581E+00 -7.3469491696E+00 -7.3319858815E+00
-7.3170834209E+00 -7.3022414175E+00 -7.2874595041E+00 -7.2727373167E+00
-7.2580744939E+00 -7.2434706774E+00 -7.2289255117E+00 -7.2144386442E+00
-7.2000097251E+00 -7.1856384075E+00 -7.1713243470E+00 -7.1570672022E+00
-7.1428666343E+00 -7.1287223072E+00 -7.1146338875E+00 -7.1006010442E+00
-7.0866234492E+00 -7.0727007769E+00 -7.0588327042E+00 -7.0450189106E+00
-7.0312590779E+00 -7.0175528906E+00 -7.0039000356E+00 -6.9903002022E+00
-6.9767530822E+00 -6.9632583696E+00 -6.9498157610E+00 -6.9364249551E+00
-6.9230856531E+00 -6.9097975584E+00 -6.8965603767E+00 -6.8833738159E+00
-6.8702375863E+00 -6.8571514002E+00 -6.8441149721E+00 -6.8311280189E+00
-6.8181902593E+00 -6.8053014145E+00 -6.7924612075E+00 -6.7796693635E+00
-6.7669256098E+00 -6.7542296758E+00 -6.7415812926E+00 -6.7289801938E+00
-6.7164261146E+00 -6.7039187924E+00 -6.6914579664E+00 -6.6790433778E+00
-6.6666747698E+00 -6.6543518873E+00 -6.6420744772E+00 -6.6298422884E+00
-6.6176550713E+00 -6.6055125786E+00 -6.5934145643E+00 -6.5813607846E+00
-6.5693509973E+00 -6.5573849619E+00 -6.5454624400E+00 -6.5335831944E+00
-6.5217469900E+00 -6.5099535933E+00 -6.4982027725E+00 -6.4864942974E+00
-6.4748279395E+00 -6.4632034721E+00 -6.4516206698E+00 -6.4400793090E+00
-6.4285791678E+00 -6.4171200256E+00 -6.4057016637E+00 -6.3943238647E+00
-6.3829864128E+00 -6.3716890939E+00 -6.3604316951E+00 -6.3492140053E+00
-6.3380358147E+00 -6.3268969151E+00 -6.3157970996E+00 -6.3047361629E+00
-6.2937139010E+00 -6.2827301116E+00 -6.2717845935E+00 -6.2608771470E+00
-6.2500075738E+00 -6.2391756770E+00 -6.2283812610E+00 -6.2176241317E+00