<UPF version="2.0.1"><PP_INFO>This pseudopotential file has been produced using the code
ONCVPSP (Optimized Norm-Conservinng Vanderbilt PSeudopotential)
scalar-relativistic version 3.3.0 08/16/2017 by D. R. Hamann
The code is available through a link at URL www.mat-simresearch.com.
Documentation with the package provides a full discription of the
input data below.
While it is not required under the terms of the GNU GPL, it is
suggested that you cite D. R. Hamann, Phys. Rev. B 88, 085117 (2013)
in any publication using these pseudopotentials.<PP_INPUTFILE>
# ATOM AND REFERENCE CONFIGURATION
# atsym z nc nv iexc psfile
S 16.00 3 2 -116133 upf
#
# n l f energy (Ha)
1 0 2.00
2 0 2.00
2 1 6.00
3 0 2.00
3 1 4.00
#
# PSEUDOPOTENTIAL AND OPTIMIZATION
# lmax
2
#
# l, rc, ep, ncon, nbas, qcut
0 1.45000 -0.63188 4 9 6.30000
1 1.45000 -0.25645 4 9 7.60000
2 1.60000 0.15000 4 9 7.00000
#
# LOCAL POTENTIAL
# lloc, lpopt, rc(5), dvloc0
4 5 1.40000 0.00000
#
# VANDERBILT-KLEINMAN-BYLANDER PROJECTORs
# l, nproj, debl
0 2 2.00000
1 2 2.00000
2 2 1.00000
#
# MODEL CORE CHARGE
# icmod, fcfact, rcfact
3 6.00000 1.25000
#
# LOG DERIVATIVE ANALYSIS
# epsh1, epsh2, depsh
-12.00 12.00 0.02
#
# OUTPUT GRID
# rlmax, drl
6.00 0.01
#
# TEST CONFIGURATIONS
# ncnf
0
# nvcnf
# n l f</PP_INPUTFILE></PP_INFO><PP_HEADER generated="Generated using ONCVPSP code by D. R. Hamann" author="anonymous" date="180301" comment="" element="S " pseudo_type="NC" relativistic="scalar" is_ultrasoft="F" is_paw="F" is_coulomb="F" has_so="F" has_wfc="F" has_gipaw="F" core_correction="T" functional="PBESOL" z_valence="    6.00" total_psenergy="  -2.01906702389E+01" rho_cutoff="   1.14500000000E+01" l_max="2" l_local="-1" mesh_size="  1146" number_of_wfc="2" number_of_proj="6"/><PP_MESH><PP_R type="real" size="1146" columns="8">
0.0000 0.0100 0.0200 0.0300 0.0400 0.0500 0.0600 0.0700
0.0800 0.0900 0.1000 0.1100 0.1200 0.1300 0.1400 0.1500
0.1600 0.1700 0.1800 0.1900 0.2000 0.2100 0.2200 0.2300
0.2400 0.2500 0.2600 0.2700 0.2800 0.2900 0.3000 0.3100
0.3200 0.3300 0.3400 0.3500 0.3600 0.3700 0.3800 0.3900
0.4000 0.4100 0.4200 0.4300 0.4400 0.4500 0.4600 0.4700
0.4800 0.4900 0.5000 0.5100 0.5200 0.5300 0.5400 0.5500
0.5600 0.5700 0.5800 0.5900 0.6000 0.6100 0.6200 0.6300
0.6400 0.6500 0.6600 0.6700 0.6800 0.6900 0.7000 0.7100
0.7200 0.7300 0.7400 0.7500 0.7600 0.7700 0.7800 0.7900
0.8000 0.8100 0.8200 0.8300 0.8400 0.8500 0.8600 0.8700
0.8800 0.8900 0.9000 0.9100 0.9200 0.9300 0.9400 0.9500
0.9600 0.9700 0.9800 0.9900 1.0000 1.0100 1.0200 1.0300
1.0400 1.0500 1.0600 1.0700 1.0800 1.0900 1.1000 1.1100
1.1200 1.1300 1.1400 1.1500 1.1600 1.1700 1.1800 1.1900
1.2000 1.2100 1.2200 1.2300 1.2400 1.2500 1.2600 1.2700
1.2800 1.2900 1.3000 1.3100 1.3200 1.3300 1.3400 1.3500
1.3600 1.3700 1.3800 1.3900 1.4000 1.4100 1.4200 1.4300
1.4400 1.4500 1.4600 1.4700 1.4800 1.4900 1.5000 1.5100
1.5200 1.5300 1.5400 1.5500 1.5600 1.5700 1.5800 1.5900
1.6000 1.6100 1.6200 1.6300 1.6400 1.6500 1.6600 1.6700
1.6800 1.6900 1.7000 1.7100 1.7200 1.7300 1.7400 1.7500
1.7600 1.7700 1.7800 1.7900 1.8000 1.8100 1.8200 1.8300
1.8400 1.8500 1.8600 1.8700 1.8800 1.8900 1.9000 1.9100
1.9200 1.9300 1.9400 1.9500 1.9600 1.9700 1.9800 1.9900
2.0000 2.0100 2.0200 2.0300 2.0400 2.0500 2.0600 2.0700
2.0800 2.0900 2.1000 2.1100 2.1200 2.1300 2.1400 2.1500
2.1600 2.1700 2.1800 2.1900 2.2000 2.2100 2.2200 2.2300
2.2400 2.2500 2.2600 2.2700 2.2800 2.2900 2.3000 2.3100
2.3200 2.3300 2.3400 2.3500 2.3600 2.3700 2.3800 2.3900
2.4000 2.4100 2.4200 2.4300 2.4400 2.4500 2.4600 2.4700
2.4800 2.4900 2.5000 2.5100 2.5200 2.5300 2.5400 2.5500
2.5600 2.5700 2.5800 2.5900 2.6000 2.6100 2.6200 2.6300
2.6400 2.6500 2.6600 2.6700 2.6800 2.6900 2.7000 2.7100
2.7200 2.7300 2.7400 2.7500 2.7600 2.7700 2.7800 2.7900
2.8000 2.8100 2.8200 2.8300 2.8400 2.8500 2.8600 2.8700
2.8800 2.8900 2.9000 2.9100 2.9200 2.9300 2.9400 2.9500
2.9600 2.9700 2.9800 2.9900 3.0000 3.0100 3.0200 3.0300
3.0400 3.0500 3.0600 3.0700 3.0800 3.0900 3.1000 3.1100
3.1200 3.1300 3.1400 3.1500 3.1600 3.1700 3.1800 3.1900
3.2000 3.2100 3.2200 3.2300 3.2400 3.2500 3.2600 3.2700
3.2800 3.2900 3.3000 3.3100 3.3200 3.3300 3.3400 3.3500
3.3600 3.3700 3.3800 3.3900 3.4000 3.4100 3.4200 3.4300
3.4400 3.4500 3.4600 3.4700 3.4800 3.4900 3.5000 3.5100
3.5200 3.5300 3.5400 3.5500 3.5600 3.5700 3.5800 3.5900
3.6000 3.6100 3.6200 3.6300 3.6400 3.6500 3.6600 3.6700
3.6800 3.6900 3.7000 3.7100 3.7200 3.7300 3.7400 3.7500
3.7600 3.7700 3.7800 3.7900 3.8000 3.8100 3.8200 3.8300
3.8400 3.8500 3.8600 3.8700 3.8800 3.8900 3.9000 3.9100
3.9200 3.9300 3.9400 3.9500 3.9600 3.9700 3.9800 3.9900
4.0000 4.0100 4.0200 4.0300 4.0400 4.0500 4.0600 4.0700
4.0800 4.0900 4.1000 4.1100 4.1200 4.1300 4.1400 4.1500
4.1600 4.1700 4.1800 4.1900 4.2000 4.2100 4.2200 4.2300
4.2400 4.2500 4.2600 4.2700 4.2800 4.2900 4.3000 4.3100
4.3200 4.3300 4.3400 4.3500 4.3600 4.3700 4.3800 4.3900
4.4000 4.4100 4.4200 4.4300 4.4400 4.4500 4.4600 4.4700
4.4800 4.4900 4.5000 4.5100 4.5200 4.5300 4.5400 4.5500
4.5600 4.5700 4.5800 4.5900 4.6000 4.6100 4.6200 4.6300
4.6400 4.6500 4.6600 4.6700 4.6800 4.6900 4.7000 4.7100
4.7200 4.7300 4.7400 4.7500 4.7600 4.7700 4.7800 4.7900
4.8000 4.8100 4.8200 4.8300 4.8400 4.8500 4.8600 4.8700
4.8800 4.8900 4.9000 4.9100 4.9200 4.9300 4.9400 4.9500
4.9600 4.9700 4.9800 4.9900 5.0000 5.0100 5.0200 5.0300
5.0400 5.0500 5.0600 5.0700 5.0800 5.0900 5.1000 5.1100
5.1200 5.1300 5.1400 5.1500 5.1600 5.1700 5.1800 5.1900
5.2000 5.2100 5.2200 5.2300 5.2400 5.2500 5.2600 5.2700
5.2800 5.2900 5.3000 5.3100 5.3200 5.3300 5.3400 5.3500
5.3600 5.3700 5.3800 5.3900 5.4000 5.4100 5.4200 5.4300
5.4400 5.4500 5.4600 5.4700 5.4800 5.4900 5.5000 5.5100
5.5200 5.5300 5.5400 5.5500 5.5600 5.5700 5.5800 5.5900
5.6000 5.6100 5.6200 5.6300 5.6400 5.6500 5.6600 5.6700
5.6800 5.6900 5.7000 5.7100 5.7200 5.7300 5.7400 5.7500
5.7600 5.7700 5.7800 5.7900 5.8000 5.8100 5.8200 5.8300
5.8400 5.8500 5.8600 5.8700 5.8800 5.8900 5.9000 5.9100
5.9200 5.9300 5.9400 5.9500 5.9600 5.9700 5.9800 5.9900
6.0000 6.0100 6.0200 6.0300 6.0400 6.0500 6.0600 6.0700
6.0800 6.0900 6.1000 6.1100 6.1200 6.1300 6.1400 6.1500
6.1600 6.1700 6.1800 6.1900 6.2000 6.2100 6.2200 6.2300
6.2400 6.2500 6.2600 6.2700 6.2800 6.2900 6.3000 6.3100
6.3200 6.3300 6.3400 6.3500 6.3600 6.3700 6.3800 6.3900
6.4000 6.4100 6.4200 6.4300 6.4400 6.4500 6.4600 6.4700
6.4800 6.4900 6.5000 6.5100 6.5200 6.5300 6.5400 6.5500
6.5600 6.5700 6.5800 6.5900 6.6000 6.6100 6.6200 6.6300
6.6400 6.6500 6.6600 6.6700 6.6800 6.6900 6.7000 6.7100
6.7200 6.7300 6.7400 6.7500 6.7600 6.7700 6.7800 6.7900
6.8000 6.8100 6.8200 6.8300 6.8400 6.8500 6.8600 6.8700
6.8800 6.8900 6.9000 6.9100 6.9200 6.9300 6.9400 6.9500
6.9600 6.9700 6.9800 6.9900 7.0000 7.0100 7.0200 7.0300
7.0400 7.0500 7.0600 7.0700 7.0800 7.0900 7.1000 7.1100
7.1200 7.1300 7.1400 7.1500 7.1600 7.1700 7.1800 7.1900
7.2000 7.2100 7.2200 7.2300 7.2400 7.2500 7.2600 7.2700
7.2800 7.2900 7.3000 7.3100 7.3200 7.3300 7.3400 7.3500
7.3600 7.3700 7.3800 7.3900 7.4000 7.4100 7.4200 7.4300
7.4400 7.4500 7.4600 7.4700 7.4800 7.4900 7.5000 7.5100
7.5200 7.5300 7.5400 7.5500 7.5600 7.5700 7.5800 7.5900
7.6000 7.6100 7.6200 7.6300 7.6400 7.6500 7.6600 7.6700
7.6800 7.6900 7.7000 7.7100 7.7200 7.7300 7.7400 7.7500
7.7600 7.7700 7.7800 7.7900 7.8000 7.8100 7.8200 7.8300
7.8400 7.8500 7.8600 7.8700 7.8800 7.8900 7.9000 7.9100
7.9200 7.9300 7.9400 7.9500 7.9600 7.9700 7.9800 7.9900
8.0000 8.0100 8.0200 8.0300 8.0400 8.0500 8.0600 8.0700
8.0800 8.0900 8.1000 8.1100 8.1200 8.1300 8.1400 8.1500
8.1600 8.1700 8.1800 8.1900 8.2000 8.2100 8.2200 8.2300
8.2400 8.2500 8.2600 8.2700 8.2800 8.2900 8.3000 8.3100
8.3200 8.3300 8.3400 8.3500 8.3600 8.3700 8.3800 8.3900
8.4000 8.4100 8.4200 8.4300 8.4400 8.4500 8.4600 8.4700
8.4800 8.4900 8.5000 8.5100 8.5200 8.5300 8.5400 8.5500
8.5600 8.5700 8.5800 8.5900 8.6000 8.6100 8.6200 8.6300
8.6400 8.6500 8.6600 8.6700 8.6800 8.6900 8.7000 8.7100
8.7200 8.7300 8.7400 8.7500 8.7600 8.7700 8.7800 8.7900
8.8000 8.8100 8.8200 8.8300 8.8400 8.8500 8.8600 8.8700
8.8800 8.8900 8.9000 8.9100 8.9200 8.9300 8.9400 8.9500
8.9600 8.9700 8.9800 8.9900 9.0000 9.0100 9.0200 9.0300
9.0400 9.0500 9.0600 9.0700 9.0800 9.0900 9.1000 9.1100
9.1200 9.1300 9.1400 9.1500 9.1600 9.1700 9.1800 9.1900
9.2000 9.2100 9.2200 9.2300 9.2400 9.2500 9.2600 9.2700
9.2800 9.2900 9.3000 9.3100 9.3200 9.3300 9.3400 9.3500
9.3600 9.3700 9.3800 9.3900 9.4000 9.4100 9.4200 9.4300
9.4400 9.4500 9.4600 9.4700 9.4800 9.4900 9.5000 9.5100
9.5200 9.5300 9.5400 9.5500 9.5600 9.5700 9.5800 9.5900
9.6000 9.6100 9.6200 9.6300 9.6400 9.6500 9.6600 9.6700
9.6800 9.6900 9.7000 9.7100 9.7200 9.7300 9.7400 9.7500
9.7600 9.7700 9.7800 9.7900 9.8000 9.8100 9.8200 9.8300
9.8400 9.8500 9.8600 9.8700 9.8800 9.8900 9.9000 9.9100
9.9200 9.9300 9.9400 9.9500 9.9600 9.9700 9.9800 9.9900
10.0000 10.0100 10.0200 10.0300 10.0400 10.0500 10.0600 10.0700
10.0800 10.0900 10.1000 10.1100 10.1200 10.1300 10.1400 10.1500
10.1600 10.1700 10.1800 10.1900 10.2000 10.2100 10.2200 10.2300
10.2400 10.2500 10.2600 10.2700 10.2800 10.2900 10.3000 10.3100
10.3200 10.3300 10.3400 10.3500 10.3600 10.3700 10.3800 10.3900
10.4000 10.4100 10.4200 10.4300 10.4400 10.4500 10.4600 10.4700
10.4800 10.4900 10.5000 10.5100 10.5200 10.5300 10.5400 10.5500
10.5600 10.5700 10.5800 10.5900 10.6000 10.6100 10.6200 10.6300
10.6400 10.6500 10.6600 10.6700 10.6800 10.6900 10.7000 10.7100
10.7200 10.7300 10.7400 10.7500 10.7600 10.7700 10.7800 10.7900
10.8000 10.8100 10.8200 10.8300 10.8400 10.8500 10.8600 10.8700
10.8800 10.8900 10.9000 10.9100 10.9200 10.9300 10.9400 10.9500
10.9600 10.9700 10.9800 10.9900 11.0000 11.0100 11.0200 11.0300
11.0400 11.0500 11.0600 11.0700 11.0800 11.0900 11.1000 11.1100
11.1200 11.1300 11.1400 11.1500 11.1600 11.1700 11.1800 11.1900
11.2000 11.2100 11.2200 11.2300 11.2400 11.2500 11.2600 11.2700
11.2800 11.2900 11.3000 11.3100 11.3200 11.3300 11.3400 11.3500
11.3600 11.3700 11.3800 11.3900 11.4000 11.4100 11.4200 11.4300
11.4400 11.4500</PP_R><PP_RAB type="real" size="1146" columns="8">
0.0100 0.0100 0.0100 0.0100 0.0100 0.0100 0.0100 0.0100
0.0100 0.0100 0.0100 0.0100 0.0100 0.0100 0.0100 0.0100
0.0100 0.0100 0.0100 0.0100 0.0100 0.0100 0.0100 0.0100
0.0100 0.0100 0.0100 0.0100 0.0100 0.0100 0.0100 0.0100
0.0100 0.0100 0.0100 0.0100 0.0100 0.0100 0.0100 0.0100
0.0100 0.0100 0.0100 0.0100 0.0100 0.0100 0.0100 0.0100
0.0100 0.0100 0.0100 0.0100 0.0100 0.0100 0.0100 0.0100
0.0100 0.0100 0.0100 0.0100 0.0100 0.0100 0.0100 0.0100
0.0100 0.0100 0.0100 0.0100 0.0100 0.0100 0.0100 0.0100
0.0100 0.0100 0.0100 0.0100 0.0100 0.0100 0.0100 0.0100
0.0100 0.0100 0.0100 0.0100 0.0100 0.0100 0.0100 0.0100
0.0100 0.0100 0.0100 0.0100 0.0100 0.0100 0.0100 0.0100
0.0100 0.0100 0.0100 0.0100 0.0100 0.0100 0.0100 0.0100
0.0100 0.0100 0.0100 0.0100 0.0100 0.0100 0.0100 0.0100
0.0100 0.0100 0.0100 0.0100 0.0100 0.0100 0.0100 0.0100
0.0100 0.0100 0.0100 0.0100 0.0100 0.0100 0.0100 0.0100
0.0100 0.0100 0.0100 0.0100 0.0100 0.0100 0.0100 0.0100
0.0100 0.0100 0.0100 0.0100 0.0100 0.0100 0.0100 0.0100
0.0100 0.0100 0.0100 0.0100 0.0100 0.0100 0.0100 0.0100
0.0100 0.0100 0.0100 0.0100 0.0100 0.0100 0.0100 0.0100
0.0100 0.0100 0.0100 0.0100 0.0100 0.0100 0.0100 0.0100
0.0100 0.0100 0.0100 0.0100 0.0100 0.0100 0.0100 0.0100
0.0100 0.0100 0.0100 0.0100 0.0100 0.0100 0.0100 0.0100
0.0100 0.0100 0.0100 0.0100 0.0100 0.0100 0.0100 0.0100
0.0100 0.0100 0.0100 0.0100 0.0100 0.0100 0.0100 0.0100
0.0100 0.0100 0.0100 0.0100 0.0100 0.0100 0.0100 0.0100
0.0100 0.0100 0.0100 0.0100 0.0100 0.0100 0.0100 0.0100
0.0100 0.0100 0.0100 0.0100 0.0100 0.0100 0.0100 0.0100
0.0100 0.0100 0.0100 0.0100 0.0100 0.0100 0.0100 0.0100
0.0100 0.0100 0.0100 0.0100 0.0100 0.0100 0.0100 0.0100
0.0100 0.0100 0.0100 0.0100 0.0100 0.0100 0.0100 0.0100
0.0100 0.0100 0.0100 0.0100 0.0100 0.0100 0.0100 0.0100
0.0100 0.0100 0.0100 0.0100 0.0100 0.0100 0.0100 0.0100
0.0100 0.0100 0.0100 0.0100 0.0100 0.0100 0.0100 0.0100
0.0100 0.0100 0.0100 0.0100 0.0100 0.0100 0.0100 0.0100
0.0100 0.0100 0.0100 0.0100 0.0100 0.0100 0.0100 0.0100
0.0100 0.0100 0.0100 0.0100 0.0100 0.0100 0.0100 0.0100
0.0100 0.0100 0.0100 0.0100 0.0100 0.0100 0.0100 0.0100
0.0100 0.0100 0.0100 0.0100 0.0100 0.0100 0.0100 0.0100
0.0100 0.0100 0.0100 0.0100 0.0100 0.0100 0.0100 0.0100
0.0100 0.0100 0.0100 0.0100 0.0100 0.0100 0.0100 0.0100
0.0100 0.0100 0.0100 0.0100 0.0100 0.0100 0.0100 0.0100
0.0100 0.0100 0.0100 0.0100 0.0100 0.0100 0.0100 0.0100
0.0100 0.0100 0.0100 0.0100 0.0100 0.0100 0.0100 0.0100
0.0100 0.0100 0.0100 0.0100 0.0100 0.0100 0.0100 0.0100
0.0100 0.0100 0.0100 0.0100 0.0100 0.0100 0.0100 0.0100
0.0100 0.0100 0.0100 0.0100 0.0100 0.0100 0.0100 0.0100
0.0100 0.0100 0.0100 0.0100 0.0100 0.0100 0.0100 0.0100
0.0100 0.0100 0.0100 0.0100 0.0100 0.0100 0.0100 0.0100
0.0100 0.0100 0.0100 0.0100 0.0100 0.0100 0.0100 0.0100
0.0100 0.0100 0.0100 0.0100 0.0100 0.0100 0.0100 0.0100
0.0100 0.0100 0.0100 0.0100 0.0100 0.0100 0.0100 0.0100
0.0100 0.0100 0.0100 0.0100 0.0100 0.0100 0.0100 0.0100
0.0100 0.0100 0.0100 0.0100 0.0100 0.0100 0.0100 0.0100
0.0100 0.0100 0.0100 0.0100 0.0100 0.0100 0.0100 0.0100
0.0100 0.0100 0.0100 0.0100 0.0100 0.0100 0.0100 0.0100
0.0100 0.0100 0.0100 0.0100 0.0100 0.0100 0.0100 0.0100
0.0100 0.0100 0.0100 0.0100 0.0100 0.0100 0.0100 0.0100
0.0100 0.0100 0.0100 0.0100 0.0100 0.0100 0.0100 0.0100
0.0100 0.0100 0.0100 0.0100 0.0100 0.0100 0.0100 0.0100
0.0100 0.0100 0.0100 0.0100 0.0100 0.0100 0.0100 0.0100
0.0100 0.0100 0.0100 0.0100 0.0100 0.0100 0.0100 0.0100
0.0100 0.0100 0.0100 0.0100 0.0100 0.0100 0.0100 0.0100
0.0100 0.0100 0.0100 0.0100 0.0100 0.0100 0.0100 0.0100
0.0100 0.0100 0.0100 0.0100 0.0100 0.0100 0.0100 0.0100
0.0100 0.0100 0.0100 0.0100 0.0100 0.0100 0.0100 0.0100
0.0100 0.0100 0.0100 0.0100 0.0100 0.0100 0.0100 0.0100
0.0100 0.0100 0.0100 0.0100 0.0100 0.0100 0.0100 0.0100
0.0100 0.0100 0.0100 0.0100 0.0100 0.0100 0.0100 0.0100
0.0100 0.0100 0.0100 0.0100 0.0100 0.0100 0.0100 0.0100
0.0100 0.0100 0.0100 0.0100 0.0100 0.0100 0.0100 0.0100
0.0100 0.0100 0.0100 0.0100 0.0100 0.0100 0.0100 0.0100
0.0100 0.0100 0.0100 0.0100 0.0100 0.0100 0.0100 0.0100
0.0100 0.0100 0.0100 0.0100 0.0100 0.0100 0.0100 0.0100
0.0100 0.0100 0.0100 0.0100 0.0100 0.0100 0.0100 0.0100
0.0100 0.0100 0.0100 0.0100 0.0100 0.0100 0.0100 0.0100
0.0100 0.0100 0.0100 0.0100 0.0100 0.0100 0.0100 0.0100
0.0100 0.0100 0.0100 0.0100 0.0100 0.0100 0.0100 0.0100
0.0100 0.0100 0.0100 0.0100 0.0100 0.0100 0.0100 0.0100
0.0100 0.0100 0.0100 0.0100 0.0100 0.0100 0.0100 0.0100
0.0100 0.0100 0.0100 0.0100 0.0100 0.0100 0.0100 0.0100
0.0100 0.0100 0.0100 0.0100 0.0100 0.0100 0.0100 0.0100
0.0100 0.0100 0.0100 0.0100 0.0100 0.0100 0.0100 0.0100
0.0100 0.0100 0.0100 0.0100 0.0100 0.0100 0.0100 0.0100
0.0100 0.0100 0.0100 0.0100 0.0100 0.0100 0.0100 0.0100
0.0100 0.0100 0.0100 0.0100 0.0100 0.0100 0.0100 0.0100
0.0100 0.0100 0.0100 0.0100 0.0100 0.0100 0.0100 0.0100
0.0100 0.0100 0.0100 0.0100 0.0100 0.0100 0.0100 0.0100
0.0100 0.0100 0.0100 0.0100 0.0100 0.0100 0.0100 0.0100
0.0100 0.0100 0.0100 0.0100 0.0100 0.0100 0.0100 0.0100
0.0100 0.0100 0.0100 0.0100 0.0100 0.0100 0.0100 0.0100
0.0100 0.0100 0.0100 0.0100 0.0100 0.0100 0.0100 0.0100
0.0100 0.0100 0.0100 0.0100 0.0100 0.0100 0.0100 0.0100
0.0100 0.0100 0.0100 0.0100 0.0100 0.0100 0.0100 0.0100
0.0100 0.0100 0.0100 0.0100 0.0100 0.0100 0.0100 0.0100
0.0100 0.0100 0.0100 0.0100 0.0100 0.0100 0.0100 0.0100
0.0100 0.0100 0.0100 0.0100 0.0100 0.0100 0.0100 0.0100
0.0100 0.0100 0.0100 0.0100 0.0100 0.0100 0.0100 0.0100
0.0100 0.0100 0.0100 0.0100 0.0100 0.0100 0.0100 0.0100
0.0100 0.0100 0.0100 0.0100 0.0100 0.0100 0.0100 0.0100
0.0100 0.0100 0.0100 0.0100 0.0100 0.0100 0.0100 0.0100
0.0100 0.0100 0.0100 0.0100 0.0100 0.0100 0.0100 0.0100
0.0100 0.0100 0.0100 0.0100 0.0100 0.0100 0.0100 0.0100
0.0100 0.0100 0.0100 0.0100 0.0100 0.0100 0.0100 0.0100
0.0100 0.0100 0.0100 0.0100 0.0100 0.0100 0.0100 0.0100
0.0100 0.0100 0.0100 0.0100 0.0100 0.0100 0.0100 0.0100
0.0100 0.0100 0.0100 0.0100 0.0100 0.0100 0.0100 0.0100
0.0100 0.0100 0.0100 0.0100 0.0100 0.0100 0.0100 0.0100
0.0100 0.0100 0.0100 0.0100 0.0100 0.0100 0.0100 0.0100
0.0100 0.0100 0.0100 0.0100 0.0100 0.0100 0.0100 0.0100
0.0100 0.0100 0.0100 0.0100 0.0100 0.0100 0.0100 0.0100
0.0100 0.0100 0.0100 0.0100 0.0100 0.0100 0.0100 0.0100
0.0100 0.0100 0.0100 0.0100 0.0100 0.0100 0.0100 0.0100
0.0100 0.0100 0.0100 0.0100 0.0100 0.0100 0.0100 0.0100
0.0100 0.0100 0.0100 0.0100 0.0100 0.0100 0.0100 0.0100
0.0100 0.0100 0.0100 0.0100 0.0100 0.0100 0.0100 0.0100
0.0100 0.0100 0.0100 0.0100 0.0100 0.0100 0.0100 0.0100
0.0100 0.0100 0.0100 0.0100 0.0100 0.0100 0.0100 0.0100
0.0100 0.0100 0.0100 0.0100 0.0100 0.0100 0.0100 0.0100
0.0100 0.0100 0.0100 0.0100 0.0100 0.0100 0.0100 0.0100
0.0100 0.0100 0.0100 0.0100 0.0100 0.0100 0.0100 0.0100
0.0100 0.0100 0.0100 0.0100 0.0100 0.0100 0.0100 0.0100
0.0100 0.0100 0.0100 0.0100 0.0100 0.0100 0.0100 0.0100
0.0100 0.0100 0.0100 0.0100 0.0100 0.0100 0.0100 0.0100
0.0100 0.0100 0.0100 0.0100 0.0100 0.0100 0.0100 0.0100
0.0100 0.0100 0.0100 0.0100 0.0100 0.0100 0.0100 0.0100
0.0100 0.0100 0.0100 0.0100 0.0100 0.0100 0.0100 0.0100
0.0100 0.0100 0.0100 0.0100 0.0100 0.0100 0.0100 0.0100
0.0100 0.0100 0.0100 0.0100 0.0100 0.0100 0.0100 0.0100
0.0100 0.0100 0.0100 0.0100 0.0100 0.0100 0.0100 0.0100
0.0100 0.0100 0.0100 0.0100 0.0100 0.0100 0.0100 0.0100
0.0100 0.0100 0.0100 0.0100 0.0100 0.0100 0.0100 0.0100
0.0100 0.0100 0.0100 0.0100 0.0100 0.0100 0.0100 0.0100
0.0100 0.0100 0.0100 0.0100 0.0100 0.0100 0.0100 0.0100
0.0100 0.0100 0.0100 0.0100 0.0100 0.0100 0.0100 0.0100
0.0100 0.0100 0.0100 0.0100 0.0100 0.0100 0.0100 0.0100
0.0100 0.0100 0.0100 0.0100 0.0100 0.0100 0.0100 0.0100
0.0100 0.0100 0.0100 0.0100 0.0100 0.0100 0.0100 0.0100
0.0100 0.0100 0.0100 0.0100 0.0100 0.0100 0.0100 0.0100
0.0100 0.0100 0.0100 0.0100 0.0100 0.0100 0.0100 0.0100
0.0100 0.0100 0.0100 0.0100 0.0100 0.0100 0.0100 0.0100
0.0100 0.0100 0.0100 0.0100 0.0100 0.0100 0.0100 0.0100
0.0100 0.0100 0.0100 0.0100 0.0100 0.0100 0.0100 0.0100
0.0100 0.0100</PP_RAB></PP_MESH><PP_LOCAL type="real" size="1146" columns="4">
-1.7914734357E+01 -1.7913898561E+01 -1.7911391581E+01 -1.7907214662E+01
-1.7901369876E+01 -1.7893860114E+01 -1.7884689083E+01 -1.7873861299E+01
-1.7861382073E+01 -1.7847257504E+01 -1.7831494463E+01 -1.7814100580E+01
-1.7795084227E+01 -1.7774454501E+01 -1.7752221203E+01 -1.7728394821E+01
-1.7702986506E+01 -1.7676008051E+01 -1.7647471868E+01 -1.7617390959E+01
-1.7585778896E+01 -1.7552649795E+01 -1.7518018284E+01 -1.7481899482E+01
-1.7444308969E+01 -1.7405262756E+01 -1.7364777264E+01 -1.7322869289E+01
-1.7279555981E+01 -1.7234854810E+01 -1.7188783546E+01 -1.7141360231E+01
-1.7092603150E+01 -1.7042530811E+01 -1.6991161919E+01 -1.6938515356E+01
-1.6884610156E+01 -1.6829465485E+01 -1.6773100626E+01 -1.6715534958E+01
-1.6656787937E+01 -1.6596879086E+01 -1.6535827978E+01 -1.6473654223E+01
-1.6410377456E+01 -1.6346017327E+01 -1.6280593491E+01 -1.6214125599E+01
-1.6146633292E+01 -1.6078136187E+01 -1.6008653880E+01 -1.5938205932E+01
-1.5866811865E+01 -1.5794491161E+01 -1.5721263249E+01 -1.5647147510E+01
-1.5572163264E+01 -1.5496329772E+01 -1.5419666232E+01 -1.5342191775E+01
-1.5263925465E+01 -1.5184886297E+01 -1.5105093201E+01 -1.5024565044E+01
-1.4943320633E+01 -1.4861378727E+01 -1.4778758043E+01 -1.4695477276E+01
-1.4611555115E+01 -1.4527010267E+01 -1.4441861485E+01 -1.4356127607E+01
-1.4269827592E+01 -1.4182980572E+01 -1.4095605906E+01 -1.4007723242E+01
-1.3919352584E+01 -1.3830514371E+01 -1.3741229555E+01 -1.3651519688E+01
-1.3561407012E+01 -1.3470914547E+01 -1.3380066184E+01 -1.3288886768E+01
-1.3197402181E+01 -1.3105639411E+01 -1.3013626616E+01 -1.2921393163E+01
-1.2828969656E+01 -1.2736387946E+01 -1.2643681106E+01 -1.2550883400E+01
-1.2458030210E+01 -1.2365157952E+01 -1.2272303962E+01 -1.2179506363E+01
-1.2086803911E+01 -1.1994235831E+01 -1.1901841638E+01 -1.1809660952E+01
-1.1717733316E+01 -1.1626098006E+01 -1.1534793857E+01 -1.1443859096E+01
-1.1353331191E+01 -1.1263246706E+01 -1.1173641187E+01 -1.1084549053E+01
-1.0996003517E+01 -1.0908036512E+01 -1.0820678646E+01 -1.0733959159E+01
-1.0647905901E+01 -1.0562545322E+01 -1.0477902462E+01 -1.0394000954E+01
-1.0310863034E+01 -1.0228509546E+01 -1.0146959953E+01 -1.0066232351E+01
-9.9863434762E+00 -9.9073087117E+00 -9.8291420965E+00 -9.7518563261E+00
-9.6754627524E+00 -9.5999713804E+00 -9.5253908605E+00 -9.4517284781E+00
-9.3789901393E+00 -9.3071803529E+00 -9.2363022091E+00 -9.1663573539E+00
-9.0973459609E+00 -9.0292666979E+00 -8.9621166913E+00 -8.8958914850E+00
-8.8305849935E+00 -8.7661894685E+00 -8.7026954129E+00 -8.6400916260E+00
-8.5783648638E+00 -8.5175001318E+00 -8.4574820152E+00 -8.3982950342E+00
-8.3399242751E+00 -8.2823528312E+00 -8.2255609310E+00 -8.1695269634E+00
-8.1142295629E+00 -8.0596517697E+00 -8.0057799602E+00 -7.9526028104E+00
-7.9001092544E+00 -7.8482870596E+00 -7.7971242736E+00 -7.7466094543E+00
-7.6967317279E+00 -7.6474807164E+00 -7.5988461106E+00 -7.5508177774E+00
-7.5033858974E+00 -7.4565408662E+00 -7.4102732565E+00 -7.3645738214E+00
-7.3194334801E+00 -7.2748433042E+00 -7.2307945066E+00 -7.1872784322E+00
-7.1442865496E+00 -7.1018104445E+00 -7.0598418130E+00 -7.0183724576E+00
-6.9773942824E+00 -6.9368992905E+00 -6.8968795815E+00 -6.8573273501E+00
-6.8182348844E+00 -6.7795945665E+00 -6.7413988716E+00 -6.7036403691E+00
-6.6663117231E+00 -6.6294056937E+00 -6.5929151383E+00 -6.5568330134E+00
-6.5211523759E+00 -6.4858663856E+00 -6.4509683063E+00 -6.4164515085E+00
-6.3823094706E+00 -6.3485357813E+00 -6.3151241411E+00 -6.2820683640E+00
-6.2493623789E+00 -6.2170002311E+00 -6.1849760836E+00 -6.1532842178E+00
-6.1219190346E+00 -6.0908750547E+00 -6.0601469192E+00 -6.0297293896E+00
-5.9996173475E+00 -5.9698057948E+00 -5.9402898524E+00 -5.9110647602E+00
-5.8821258750E+00 -5.8534686704E+00 -5.8250887343E+00 -5.7969817677E+00
-5.7691435829E+00 -5.7415701008E+00 -5.7142573492E+00 -5.6872014602E+00
-5.6603986673E+00 -5.6338453029E+00 -5.6075377955E+00 -5.5814726665E+00
-5.5556465272E+00 -5.5300560757E+00 -5.5046980935E+00 -5.4795694424E+00
-5.4546670611E+00 -5.4299879620E+00 -5.4055292278E+00 -5.3812880081E+00
-5.3572615163E+00 -5.3334470264E+00 -5.3098418696E+00 -5.2864434316E+00
-5.2632491492E+00 -5.2402565079E+00 -5.2174630385E+00 -5.1948663150E+00
-5.1724639518E+00 -5.1502536014E+00 -5.1282329520E+00 -5.1063997257E+00
-5.0847516761E+00 -5.0632865873E+00 -5.0420022712E+00 -5.0208965672E+00
-4.9999673399E+00 -4.9792124787E+00 -4.9586298964E+00 -4.9382175285E+00
-4.9179733327E+00 -4.8978952879E+00 -4.8779813944E+00 -4.8582296733E+00
-4.8386381663E+00 -4.8192049358E+00 -4.7999280650E+00 -4.7808056578E+00
-4.7618358393E+00 -4.7430167563E+00 -4.7243465770E+00 -4.7058234919E+00
-4.6874457143E+00 -4.6692114803E+00 -4.6511190498E+00 -4.6331667067E+00
-4.6153527593E+00 -4.5976755410E+00 -4.5801334105E+00 -4.5627247523E+00
-4.5454479771E+00 -4.5283015218E+00 -4.5112838502E+00 -4.4943934526E+00
-4.4776288465E+00 -4.4609885760E+00 -4.4444712125E+00 -4.4280753539E+00
-4.4117996247E+00 -4.3956426760E+00 -4.3796031846E+00 -4.3636798530E+00
-4.3478714088E+00 -4.3321766043E+00 -4.3165942156E+00 -4.3011230423E+00
-4.2857619066E+00 -4.2705096524E+00 -4.2553651449E+00 -4.2403272697E+00
-4.2253949315E+00 -4.2105670541E+00 -4.1958425786E+00 -4.1812204634E+00
-4.1666996828E+00 -4.1522792263E+00 -4.1379580980E+00 -4.1237353154E+00
-4.1096099092E+00 -4.0955809219E+00 -4.0816474078E+00 -4.0678084320E+00
-4.0540630699E+00 -4.0404104066E+00 -4.0268495366E+00 -4.0133795632E+00
-3.9999995984E+00 -3.9867087624E+00 -3.9735061834E+00 -3.9603909973E+00
-3.9473623480E+00 -3.9344193868E+00 -3.9215612726E+00 -3.9087871722E+00
-3.8960962596E+00 -3.8834877170E+00 -3.8709607343E+00 -3.8585145093E+00
-3.8461482483E+00 -3.8338611657E+00 -3.8216524847E+00 -3.8095214371E+00
-3.7974672638E+00 -3.7854892149E+00 -3.7735865497E+00 -3.7617585373E+00
-3.7500044559E+00 -3.7383235942E+00 -3.7267152510E+00 -3.7151787348E+00
-3.7037133665E+00 -3.6923184714E+00 -3.6809933852E+00 -3.6697374559E+00
-3.6585500322E+00 -3.6474304999E+00 -3.6363782495E+00 -3.6253926757E+00
-3.6144731947E+00 -3.6036191826E+00 -3.5928300310E+00 -3.5821051400E+00
-3.5714439181E+00 -3.5608457904E+00 -3.5503101976E+00 -3.5398365991E+00
-3.5294244446E+00 -3.5190732759E+00 -3.5087826268E+00 -3.4985520344E+00
-3.4883810647E+00 -3.4782692044E+00 -3.4682159449E+00 -3.4582207744E+00
-3.4482831740E+00 -3.4384026225E+00 -3.4285785995E+00 -3.4188105890E+00
-3.4090980716E+00 -3.3994405604E+00 -3.3898375935E+00 -3.3802887109E+00
-3.3707934663E+00 -3.3613514182E+00 -3.3519621155E+00 -3.3426251196E+00
-3.3333399962E+00 -3.3241063154E+00 -3.3149236511E+00 -3.3057915815E+00
-3.2967096890E+00 -3.2876775594E+00 -3.2786947852E+00 -3.2697609632E+00
-3.2608756946E+00 -3.2520385847E+00 -3.2432492433E+00 -3.2345072839E+00
-3.2258123244E+00 -3.2171639867E+00 -3.2085618970E+00 -3.2000056853E+00
-3.1914949854E+00 -3.1830294353E+00 -3.1746086766E+00 -3.1662323548E+00
-3.1579001191E+00 -3.1496116223E+00 -3.1413665210E+00 -3.1331644752E+00
-3.1250051486E+00 -3.1168882084E+00 -3.1088133250E+00 -3.1007801725E+00
-3.0927884282E+00 -3.0848377728E+00 -3.0769278902E+00 -3.0690584676E+00
-3.0612291954E+00 -3.0534397670E+00 -3.0456898791E+00 -3.0379792314E+00
-3.0303075267E+00 -3.0226744706E+00 -3.0150797718E+00 -3.0075231420E+00
-3.0000042956E+00 -2.9925229500E+00 -2.9850788253E+00 -2.9776716444E+00
-2.9703011330E+00 -2.9629670196E+00 -2.9556690350E+00 -2.9484069131E+00
-2.9411803902E+00 -2.9339892050E+00 -2.9268330992E+00 -2.9197118165E+00
-2.9126251035E+00 -2.9055727091E+00 -2.8985543845E+00 -2.8915698835E+00
-2.8846189622E+00 -2.8777013789E+00 -2.8708168945E+00 -2.8639652719E+00
-2.8571462764E+00 -2.8503596756E+00 -2.8436052390E+00 -2.8368827387E+00
-2.8301919486E+00 -2.8235326450E+00 -2.8169046060E+00 -2.8103076120E+00
-2.8037414455E+00 -2.7972058908E+00 -2.7907007344E+00 -2.7842257647E+00
-2.7777807720E+00 -2.7713655487E+00 -2.7649798890E+00 -2.7586235890E+00
-2.7522964466E+00 -2.7459982618E+00 -2.7397288362E+00 -2.7334879732E+00
-2.7272754781E+00 -2.7210911579E+00 -2.7149348214E+00 -2.7088062791E+00
-2.7027053432E+00 -2.6966318276E+00 -2.6905855478E+00 -2.6845663210E+00
-2.6785739661E+00 -2.6726083035E+00 -2.6666691553E+00 -2.6607563452E+00
-2.6548696982E+00 -2.6490090411E+00 -2.6431742023E+00 -2.6373650114E+00
-2.6315812997E+00 -2.6258228999E+00 -2.6200896464E+00 -2.6143813746E+00
-2.6086979217E+00 -2.6030391262E+00 -2.5974048279E+00 -2.5917948681E+00
-2.5862090895E+00 -2.5806473360E+00 -2.5751094530E+00 -2.5695952871E+00
-2.5641046863E+00 -2.5586374998E+00 -2.5531935783E+00 -2.5477727734E+00
-2.5423749383E+00 -2.5369999273E+00 -2.5316475959E+00 -2.5263178009E+00
-2.5210104003E+00 -2.5157252532E+00 -2.5104622198E+00 -2.5052211618E+00
-2.5000019418E+00 -2.4948044236E+00 -2.4896284720E+00 -2.4844739532E+00
-2.4793407343E+00 -2.4742286835E+00 -2.4691376701E+00 -2.4640675646E+00
-2.4590182385E+00 -2.4539895642E+00 -2.4489814152E+00 -2.4439936663E+00
-2.4390261930E+00 -2.4340788718E+00 -2.4291515805E+00 -2.4242441976E+00
-2.4193566028E+00 -2.4144886765E+00 -2.4096403002E+00 -2.4048113565E+00
-2.4000017288E+00 -2.3952113013E+00 -2.3904399593E+00 -2.3856875890E+00
-2.3809540775E+00 -2.3762393127E+00 -2.3715431835E+00 -2.3668655796E+00
-2.3622063915E+00 -2.3575655109E+00 -2.3529428299E+00 -2.3483382417E+00
-2.3437516402E+00 -2.3391829204E+00 -2.3346319779E+00 -2.3300987090E+00
-2.3255830110E+00 -2.3210847820E+00 -2.3166039208E+00 -2.3121403269E+00
-2.3076939008E+00 -2.3032645437E+00 -2.2988521573E+00 -2.2944566444E+00
-2.2900779083E+00 -2.2857158532E+00 -2.2813703840E+00 -2.2770414062E+00
-2.2727288261E+00 -2.2684325507E+00 -2.2641524878E+00 -2.2598885456E+00
-2.2556406335E+00 -2.2514086610E+00 -2.2471925386E+00 -2.2429921775E+00
-2.2388074894E+00 -2.2346383869E+00 -2.2304847829E+00 -2.2263465912E+00
-2.2222237262E+00 -2.2181161029E+00 -2.2140236369E+00 -2.2099462445E+00
-2.2058838425E+00 -2.2018363484E+00 -2.1978036804E+00 -2.1937857571E+00
-2.1897824978E+00 -2.1857938223E+00 -2.1818196511E+00 -2.1778599053E+00
-2.1739145064E+00 -2.1699833765E+00 -2.1660664385E+00 -2.1621636156E+00
-2.1582748317E+00 -2.1544000111E+00 -2.1505390787E+00 -2.1466919601E+00
-2.1428585812E+00 -2.1390388685E+00 -2.1352327492E+00 -2.1314401506E+00
-2.1276610011E+00 -2.1238952290E+00 -2.1201427636E+00 -2.1164035343E+00
-2.1126774714E+00 -2.1089645054E+00 -2.1052645673E+00 -2.1015775887E+00
-2.0979035016E+00 -2.0942422386E+00 -2.0905937326E+00 -2.0869579170E+00
-2.0833347258E+00 -2.0797240933E+00 -2.0761259543E+00 -2.0725402441E+00
-2.0689668985E+00 -2.0654058535E+00 -2.0618570457E+00 -2.0583204123E+00
-2.0547958905E+00 -2.0512834185E+00 -2.0477829343E+00 -2.0442943769E+00
-2.0408176852E+00 -2.0373527990E+00 -2.0338996581E+00 -2.0304582029E+00
-2.0270283743E+00 -2.0236101134E+00 -2.0202033617E+00 -2.0168080614E+00
-2.0134241546E+00 -2.0100515841E+00 -2.0066902932E+00 -2.0033402252E+00
-2.0000013241E+00 -1.9966735341E+00 -1.9933567999E+00 -1.9900510665E+00
-1.9867562792E+00 -1.9834723837E+00 -1.9801993261E+00 -1.9769370529E+00
-1.9736855108E+00 -1.9704446470E+00 -1.9672144089E+00 -1.9639947445E+00
-1.9607856018E+00 -1.9575869293E+00 -1.9543986760E+00 -1.9512207910E+00
-1.9480532237E+00 -1.9448959241E+00 -1.9417488422E+00 -1.9386119286E+00
-1.9354851340E+00 -1.9323684096E+00 -1.9292617069E+00 -1.9261649774E+00
-1.9230781734E+00 -1.9200012471E+00 -1.9169341512E+00 -1.9138768386E+00
-1.9108292628E+00 -1.9077913771E+00 -1.9047631355E+00 -1.9017444921E+00
-1.8987354013E+00 -1.8957358180E+00 -1.8927456970E+00 -1.8897649937E+00
-1.8867936636E+00 -1.8838316627E+00 -1.8808789470E+00 -1.8779354730E+00
-1.8750011973E+00 -1.8720760769E+00 -1.8691600689E+00 -1.8662531310E+00
-1.8633552209E+00 -1.8604662964E+00 -1.8575863160E+00 -1.8547152381E+00
-1.8518530216E+00 -1.8489996254E+00 -1.8461550089E+00 -1.8433191316E+00
-1.8404919533E+00 -1.8376734340E+00 -1.8348635341E+00 -1.8320622139E+00
-1.8292694344E+00 -1.8264851564E+00 -1.8237093413E+00 -1.8209419505E+00