<UPF version="2.0.1"><PP_INFO>This pseudopotential file has been produced using the code
ONCVPSP (Optimized Norm-Conservinng Vanderbilt PSeudopotential)
scalar-relativistic version 3.3.0 08/16/2017 by D. R. Hamann
The code is available through a link at URL www.mat-simresearch.com.
Documentation with the package provides a full discription of the
input data below.
While it is not required under the terms of the GNU GPL, it is
suggested that you cite D. R. Hamann, Phys. Rev. B 88, 085117 (2013)
in any publication using these pseudopotentials.<PP_INPUTFILE>
# ATOM AND REFERENCE CONFIGURATION
# atsym z nc nv iexc psfile
Xe 54.00 9 2 -116133 upf
#
# n l f energy (Ha)
1 0 2.00
2 0 2.00
2 1 6.00
3 0 2.00
3 1 6.00
3 2 10.00
4 0 2.00
4 1 6.00
4 2 10.00
5 0 2.00
5 1 6.00
#
# PSEUDOPOTENTIAL AND OPTIMIZATION
# lmax
2
#
# l, rc, ep, ncon, nbas, qcut
0 2.00000 -0.72691 4 7 4.00000
1 1.80000 -0.30292 4 8 6.00000
2 2.20000 0.10000 4 7 5.50000
#
# LOCAL POTENTIAL
# lloc, lpopt, rc(5), dvloc0
4 5 1.80000 0.00000
#
# VANDERBILT-KLEINMAN-BYLANDER PROJECTORs
# l, nproj, debl
0 2 4.00000
1 2 3.00000
2 2 4.00000
#
# MODEL CORE CHARGE
# icmod, fcfact, rcfact
3 8.00000 1.23000
#
# LOG DERIVATIVE ANALYSIS
# epsh1, epsh2, depsh
-12.00 12.00 0.02
#
# OUTPUT GRID
# rlmax, drl
6.00 0.01
#
# TEST CONFIGURATIONS
# ncnf
0
# nvcnf
# n l f</PP_INPUTFILE></PP_INFO><PP_HEADER generated="Generated using ONCVPSP code by D. R. Hamann" author="anonymous" date="180301" comment="" element="Xe" pseudo_type="NC" relativistic="scalar" is_ultrasoft="F" is_paw="F" is_coulomb="F" has_so="F" has_wfc="F" has_gipaw="F" core_correction="T" functional="PBESOL" z_valence="    8.00" total_psenergy="  -3.14902010163E+01" rho_cutoff="   1.10500000000E+01" l_max="2" l_local="-1" mesh_size="  1106" number_of_wfc="2" number_of_proj="6"/><PP_MESH><PP_R type="real" size="1106" columns="8">
0.0000 0.0100 0.0200 0.0300 0.0400 0.0500 0.0600 0.0700
0.0800 0.0900 0.1000 0.1100 0.1200 0.1300 0.1400 0.1500
0.1600 0.1700 0.1800 0.1900 0.2000 0.2100 0.2200 0.2300
0.2400 0.2500 0.2600 0.2700 0.2800 0.2900 0.3000 0.3100
0.3200 0.3300 0.3400 0.3500 0.3600 0.3700 0.3800 0.3900
0.4000 0.4100 0.4200 0.4300 0.4400 0.4500 0.4600 0.4700
0.4800 0.4900 0.5000 0.5100 0.5200 0.5300 0.5400 0.5500
0.5600 0.5700 0.5800 0.5900 0.6000 0.6100 0.6200 0.6300
0.6400 0.6500 0.6600 0.6700 0.6800 0.6900 0.7000 0.7100
0.7200 0.7300 0.7400 0.7500 0.7600 0.7700 0.7800 0.7900
0.8000 0.8100 0.8200 0.8300 0.8400 0.8500 0.8600 0.8700
0.8800 0.8900 0.9000 0.9100 0.9200 0.9300 0.9400 0.9500
0.9600 0.9700 0.9800 0.9900 1.0000 1.0100 1.0200 1.0300
1.0400 1.0500 1.0600 1.0700 1.0800 1.0900 1.1000 1.1100
1.1200 1.1300 1.1400 1.1500 1.1600 1.1700 1.1800 1.1900
1.2000 1.2100 1.2200 1.2300 1.2400 1.2500 1.2600 1.2700
1.2800 1.2900 1.3000 1.3100 1.3200 1.3300 1.3400 1.3500
1.3600 1.3700 1.3800 1.3900 1.4000 1.4100 1.4200 1.4300
1.4400 1.4500 1.4600 1.4700 1.4800 1.4900 1.5000 1.5100
1.5200 1.5300 1.5400 1.5500 1.5600 1.5700 1.5800 1.5900
1.6000 1.6100 1.6200 1.6300 1.6400 1.6500 1.6600 1.6700
1.6800 1.6900 1.7000 1.7100 1.7200 1.7300 1.7400 1.7500
1.7600 1.7700 1.7800 1.7900 1.8000 1.8100 1.8200 1.8300
1.8400 1.8500 1.8600 1.8700 1.8800 1.8900 1.9000 1.9100
1.9200 1.9300 1.9400 1.9500 1.9600 1.9700 1.9800 1.9900
2.0000 2.0100 2.0200 2.0300 2.0400 2.0500 2.0600 2.0700
2.0800 2.0900 2.1000 2.1100 2.1200 2.1300 2.1400 2.1500
2.1600 2.1700 2.1800 2.1900 2.2000 2.2100 2.2200 2.2300
2.2400 2.2500 2.2600 2.2700 2.2800 2.2900 2.3000 2.3100
2.3200 2.3300 2.3400 2.3500 2.3600 2.3700 2.3800 2.3900
2.4000 2.4100 2.4200 2.4300 2.4400 2.4500 2.4600 2.4700
2.4800 2.4900 2.5000 2.5100 2.5200 2.5300 2.5400 2.5500
2.5600 2.5700 2.5800 2.5900 2.6000 2.6100 2.6200 2.6300
2.6400 2.6500 2.6600 2.6700 2.6800 2.6900 2.7000 2.7100
2.7200 2.7300 2.7400 2.7500 2.7600 2.7700 2.7800 2.7900
2.8000 2.8100 2.8200 2.8300 2.8400 2.8500 2.8600 2.8700
2.8800 2.8900 2.9000 2.9100 2.9200 2.9300 2.9400 2.9500
2.9600 2.9700 2.9800 2.9900 3.0000 3.0100 3.0200 3.0300
3.0400 3.0500 3.0600 3.0700 3.0800 3.0900 3.1000 3.1100
3.1200 3.1300 3.1400 3.1500 3.1600 3.1700 3.1800 3.1900
3.2000 3.2100 3.2200 3.2300 3.2400 3.2500 3.2600 3.2700
3.2800 3.2900 3.3000 3.3100 3.3200 3.3300 3.3400 3.3500
3.3600 3.3700 3.3800 3.3900 3.4000 3.4100 3.4200 3.4300
3.4400 3.4500 3.4600 3.4700 3.4800 3.4900 3.5000 3.5100
3.5200 3.5300 3.5400 3.5500 3.5600 3.5700 3.5800 3.5900
3.6000 3.6100 3.6200 3.6300 3.6400 3.6500 3.6600 3.6700
3.6800 3.6900 3.7000 3.7100 3.7200 3.7300 3.7400 3.7500
3.7600 3.7700 3.7800 3.7900 3.8000 3.8100 3.8200 3.8300
3.8400 3.8500 3.8600 3.8700 3.8800 3.8900 3.9000 3.9100
3.9200 3.9300 3.9400 3.9500 3.9600 3.9700 3.9800 3.9900
4.0000 4.0100 4.0200 4.0300 4.0400 4.0500 4.0600 4.0700
4.0800 4.0900 4.1000 4.1100 4.1200 4.1300 4.1400 4.1500
4.1600 4.1700 4.1800 4.1900 4.2000 4.2100 4.2200 4.2300
4.2400 4.2500 4.2600 4.2700 4.2800 4.2900 4.3000 4.3100
4.3200 4.3300 4.3400 4.3500 4.3600 4.3700 4.3800 4.3900
4.4000 4.4100 4.4200 4.4300 4.4400 4.4500 4.4600 4.4700
4.4800 4.4900 4.5000 4.5100 4.5200 4.5300 4.5400 4.5500
4.5600 4.5700 4.5800 4.5900 4.6000 4.6100 4.6200 4.6300
4.6400 4.6500 4.6600 4.6700 4.6800 4.6900 4.7000 4.7100
4.7200 4.7300 4.7400 4.7500 4.7600 4.7700 4.7800 4.7900
4.8000 4.8100 4.8200 4.8300 4.8400 4.8500 4.8600 4.8700
4.8800 4.8900 4.9000 4.9100 4.9200 4.9300 4.9400 4.9500
4.9600 4.9700 4.9800 4.9900 5.0000 5.0100 5.0200 5.0300
5.0400 5.0500 5.0600 5.0700 5.0800 5.0900 5.1000 5.1100
5.1200 5.1300 5.1400 5.1500 5.1600 5.1700 5.1800 5.1900
5.2000 5.2100 5.2200 5.2300 5.2400 5.2500 5.2600 5.2700
5.2800 5.2900 5.3000 5.3100 5.3200 5.3300 5.3400 5.3500
5.3600 5.3700 5.3800 5.3900 5.4000 5.4100 5.4200 5.4300
5.4400 5.4500 5.4600 5.4700 5.4800 5.4900 5.5000 5.5100
5.5200 5.5300 5.5400 5.5500 5.5600 5.5700 5.5800 5.5900
5.6000 5.6100 5.6200 5.6300 5.6400 5.6500 5.6600 5.6700
5.6800 5.6900 5.7000 5.7100 5.7200 5.7300 5.7400 5.7500
5.7600 5.7700 5.7800 5.7900 5.8000 5.8100 5.8200 5.8300
5.8400 5.8500 5.8600 5.8700 5.8800 5.8900 5.9000 5.9100
5.9200 5.9300 5.9400 5.9500 5.9600 5.9700 5.9800 5.9900
6.0000 6.0100 6.0200 6.0300 6.0400 6.0500 6.0600 6.0700
6.0800 6.0900 6.1000 6.1100 6.1200 6.1300 6.1400 6.1500
6.1600 6.1700 6.1800 6.1900 6.2000 6.2100 6.2200 6.2300
6.2400 6.2500 6.2600 6.2700 6.2800 6.2900 6.3000 6.3100
6.3200 6.3300 6.3400 6.3500 6.3600 6.3700 6.3800 6.3900
6.4000 6.4100 6.4200 6.4300 6.4400 6.4500 6.4600 6.4700
6.4800 6.4900 6.5000 6.5100 6.5200 6.5300 6.5400 6.5500
6.5600 6.5700 6.5800 6.5900 6.6000 6.6100 6.6200 6.6300
6.6400 6.6500 6.6600 6.6700 6.6800 6.6900 6.7000 6.7100
6.7200 6.7300 6.7400 6.7500 6.7600 6.7700 6.7800 6.7900
6.8000 6.8100 6.8200 6.8300 6.8400 6.8500 6.8600 6.8700
6.8800 6.8900 6.9000 6.9100 6.9200 6.9300 6.9400 6.9500
6.9600 6.9700 6.9800 6.9900 7.0000 7.0100 7.0200 7.0300
7.0400 7.0500 7.0600 7.0700 7.0800 7.0900 7.1000 7.1100
7.1200 7.1300 7.1400 7.1500 7.1600 7.1700 7.1800 7.1900
7.2000 7.2100 7.2200 7.2300 7.2400 7.2500 7.2600 7.2700
7.2800 7.2900 7.3000 7.3100 7.3200 7.3300 7.3400 7.3500
7.3600 7.3700 7.3800 7.3900 7.4000 7.4100 7.4200 7.4300
7.4400 7.4500 7.4600 7.4700 7.4800 7.4900 7.5000 7.5100
7.5200 7.5300 7.5400 7.5500 7.5600 7.5700 7.5800 7.5900
7.6000 7.6100 7.6200 7.6300 7.6400 7.6500 7.6600 7.6700
7.6800 7.6900 7.7000 7.7100 7.7200 7.7300 7.7400 7.7500
7.7600 7.7700 7.7800 7.7900 7.8000 7.8100 7.8200 7.8300
7.8400 7.8500 7.8600 7.8700 7.8800 7.8900 7.9000 7.9100
7.9200 7.9300 7.9400 7.9500 7.9600 7.9700 7.9800 7.9900
8.0000 8.0100 8.0200 8.0300 8.0400 8.0500 8.0600 8.0700
8.0800 8.0900 8.1000 8.1100 8.1200 8.1300 8.1400 8.1500
8.1600 8.1700 8.1800 8.1900 8.2000 8.2100 8.2200 8.2300
8.2400 8.2500 8.2600 8.2700 8.2800 8.2900 8.3000 8.3100
8.3200 8.3300 8.3400 8.3500 8.3600 8.3700 8.3800 8.3900
8.4000 8.4100 8.4200 8.4300 8.4400 8.4500 8.4600 8.4700
8.4800 8.4900 8.5000 8.5100 8.5200 8.5300 8.5400 8.5500
8.5600 8.5700 8.5800 8.5900 8.6000 8.6100 8.6200 8.6300
8.6400 8.6500 8.6600 8.6700 8.6800 8.6900 8.7000 8.7100
8.7200 8.7300 8.7400 8.7500 8.7600 8.7700 8.7800 8.7900
8.8000 8.8100 8.8200 8.8300 8.8400 8.8500 8.8600 8.8700
8.8800 8.8900 8.9000 8.9100 8.9200 8.9300 8.9400 8.9500
8.9600 8.9700 8.9800 8.9900 9.0000 9.0100 9.0200 9.0300
9.0400 9.0500 9.0600 9.0700 9.0800 9.0900 9.1000 9.1100
9.1200 9.1300 9.1400 9.1500 9.1600 9.1700 9.1800 9.1900
9.2000 9.2100 9.2200 9.2300 9.2400 9.2500 9.2600 9.2700
9.2800 9.2900 9.3000 9.3100 9.3200 9.3300 9.3400 9.3500
9.3600 9.3700 9.3800 9.3900 9.4000 9.4100 9.4200 9.4300
9.4400 9.4500 9.4600 9.4700 9.4800 9.4900 9.5000 9.5100
9.5200 9.5300 9.5400 9.5500 9.5600 9.5700 9.5800 9.5900
9.6000 9.6100 9.6200 9.6300 9.6400 9.6500 9.6600 9.6700
9.6800 9.6900 9.7000 9.7100 9.7200 9.7300 9.7400 9.7500
9.7600 9.7700 9.7800 9.7900 9.8000 9.8100 9.8200 9.8300
9.8400 9.8500 9.8600 9.8700 9.8800 9.8900 9.9000 9.9100
9.9200 9.9300 9.9400 9.9500 9.9600 9.9700 9.9800 9.9900
10.0000 10.0100 10.0200 10.0300 10.0400 10.0500 10.0600 10.0700
10.0800 10.0900 10.1000 10.1100 10.1200 10.1300 10.1400 10.1500
10.1600 10.1700 10.1800 10.1900 10.2000 10.2100 10.2200 10.2300
10.2400 10.2500 10.2600 10.2700 10.2800 10.2900 10.3000 10.3100
10.3200 10.3300 10.3400 10.3500 10.3600 10.3700 10.3800 10.3900
10.4000 10.4100 10.4200 10.4300 10.4400 10.4500 10.4600 10.4700
10.4800 10.4900 10.5000 10.5100 10.5200 10.5300 10.5400 10.5500
10.5600 10.5700 10.5800 10.5900 10.6000 10.6100 10.6200 10.6300
10.6400 10.6500 10.6600 10.6700 10.6800 10.6900 10.7000 10.7100
10.7200 10.7300 10.7400 10.7500 10.7600 10.7700 10.7800 10.7900
10.8000 10.8100 10.8200 10.8300 10.8400 10.8500 10.8600 10.8700
10.8800 10.8900 10.9000 10.9100 10.9200 10.9300 10.9400 10.9500
10.9600 10.9700 10.9800 10.9900 11.0000 11.0100 11.0200 11.0300
11.0400 11.0500</PP_R><PP_RAB type="real" size="1106" columns="8">
0.0100 0.0100 0.0100 0.0100 0.0100 0.0100 0.0100 0.0100
0.0100 0.0100 0.0100 0.0100 0.0100 0.0100 0.0100 0.0100
0.0100 0.0100 0.0100 0.0100 0.0100 0.0100 0.0100 0.0100
0.0100 0.0100 0.0100 0.0100 0.0100 0.0100 0.0100 0.0100
0.0100 0.0100 0.0100 0.0100 0.0100 0.0100 0.0100 0.0100
0.0100 0.0100 0.0100 0.0100 0.0100 0.0100 0.0100 0.0100
0.0100 0.0100 0.0100 0.0100 0.0100 0.0100 0.0100 0.0100
0.0100 0.0100 0.0100 0.0100 0.0100 0.0100 0.0100 0.0100
0.0100 0.0100 0.0100 0.0100 0.0100 0.0100 0.0100 0.0100
0.0100 0.0100 0.0100 0.0100 0.0100 0.0100 0.0100 0.0100
0.0100 0.0100 0.0100 0.0100 0.0100 0.0100 0.0100 0.0100
0.0100 0.0100 0.0100 0.0100 0.0100 0.0100 0.0100 0.0100
0.0100 0.0100 0.0100 0.0100 0.0100 0.0100 0.0100 0.0100
0.0100 0.0100 0.0100 0.0100 0.0100 0.0100 0.0100 0.0100
0.0100 0.0100 0.0100 0.0100 0.0100 0.0100 0.0100 0.0100
0.0100 0.0100 0.0100 0.0100 0.0100 0.0100 0.0100 0.0100
0.0100 0.0100 0.0100 0.0100 0.0100 0.0100 0.0100 0.0100
0.0100 0.0100 0.0100 0.0100 0.0100 0.0100 0.0100 0.0100
0.0100 0.0100 0.0100 0.0100 0.0100 0.0100 0.0100 0.0100
0.0100 0.0100 0.0100 0.0100 0.0100 0.0100 0.0100 0.0100
0.0100 0.0100 0.0100 0.0100 0.0100 0.0100 0.0100 0.0100
0.0100 0.0100 0.0100 0.0100 0.0100 0.0100 0.0100 0.0100
0.0100 0.0100 0.0100 0.0100 0.0100 0.0100 0.0100 0.0100
0.0100 0.0100 0.0100 0.0100 0.0100 0.0100 0.0100 0.0100
0.0100 0.0100 0.0100 0.0100 0.0100 0.0100 0.0100 0.0100
0.0100 0.0100 0.0100 0.0100 0.0100 0.0100 0.0100 0.0100
0.0100 0.0100 0.0100 0.0100 0.0100 0.0100 0.0100 0.0100
0.0100 0.0100 0.0100 0.0100 0.0100 0.0100 0.0100 0.0100
0.0100 0.0100 0.0100 0.0100 0.0100 0.0100 0.0100 0.0100
0.0100 0.0100 0.0100 0.0100 0.0100 0.0100 0.0100 0.0100
0.0100 0.0100 0.0100 0.0100 0.0100 0.0100 0.0100 0.0100
0.0100 0.0100 0.0100 0.0100 0.0100 0.0100 0.0100 0.0100
0.0100 0.0100 0.0100 0.0100 0.0100 0.0100 0.0100 0.0100
0.0100 0.0100 0.0100 0.0100 0.0100 0.0100 0.0100 0.0100
0.0100 0.0100 0.0100 0.0100 0.0100 0.0100 0.0100 0.0100
0.0100 0.0100 0.0100 0.0100 0.0100 0.0100 0.0100 0.0100
0.0100 0.0100 0.0100 0.0100 0.0100 0.0100 0.0100 0.0100
0.0100 0.0100 0.0100 0.0100 0.0100 0.0100 0.0100 0.0100
0.0100 0.0100 0.0100 0.0100 0.0100 0.0100 0.0100 0.0100
0.0100 0.0100 0.0100 0.0100 0.0100 0.0100 0.0100 0.0100
0.0100 0.0100 0.0100 0.0100 0.0100 0.0100 0.0100 0.0100
0.0100 0.0100 0.0100 0.0100 0.0100 0.0100 0.0100 0.0100
0.0100 0.0100 0.0100 0.0100 0.0100 0.0100 0.0100 0.0100
0.0100 0.0100 0.0100 0.0100 0.0100 0.0100 0.0100 0.0100
0.0100 0.0100 0.0100 0.0100 0.0100 0.0100 0.0100 0.0100
0.0100 0.0100 0.0100 0.0100 0.0100 0.0100 0.0100 0.0100
0.0100 0.0100 0.0100 0.0100 0.0100 0.0100 0.0100 0.0100
0.0100 0.0100 0.0100 0.0100 0.0100 0.0100 0.0100 0.0100
0.0100 0.0100 0.0100 0.0100 0.0100 0.0100 0.0100 0.0100
0.0100 0.0100 0.0100 0.0100 0.0100 0.0100 0.0100 0.0100
0.0100 0.0100 0.0100 0.0100 0.0100 0.0100 0.0100 0.0100
0.0100 0.0100 0.0100 0.0100 0.0100 0.0100 0.0100 0.0100
0.0100 0.0100 0.0100 0.0100 0.0100 0.0100 0.0100 0.0100
0.0100 0.0100 0.0100 0.0100 0.0100 0.0100 0.0100 0.0100
0.0100 0.0100 0.0100 0.0100 0.0100 0.0100 0.0100 0.0100
0.0100 0.0100 0.0100 0.0100 0.0100 0.0100 0.0100 0.0100
0.0100 0.0100 0.0100 0.0100 0.0100 0.0100 0.0100 0.0100
0.0100 0.0100 0.0100 0.0100 0.0100 0.0100 0.0100 0.0100
0.0100 0.0100 0.0100 0.0100 0.0100 0.0100 0.0100 0.0100
0.0100 0.0100 0.0100 0.0100 0.0100 0.0100 0.0100 0.0100
0.0100 0.0100 0.0100 0.0100 0.0100 0.0100 0.0100 0.0100
0.0100 0.0100 0.0100 0.0100 0.0100 0.0100 0.0100 0.0100
0.0100 0.0100 0.0100 0.0100 0.0100 0.0100 0.0100 0.0100
0.0100 0.0100 0.0100 0.0100 0.0100 0.0100 0.0100 0.0100
0.0100 0.0100 0.0100 0.0100 0.0100 0.0100 0.0100 0.0100
0.0100 0.0100 0.0100 0.0100 0.0100 0.0100 0.0100 0.0100
0.0100 0.0100 0.0100 0.0100 0.0100 0.0100 0.0100 0.0100
0.0100 0.0100 0.0100 0.0100 0.0100 0.0100 0.0100 0.0100
0.0100 0.0100 0.0100 0.0100 0.0100 0.0100 0.0100 0.0100
0.0100 0.0100 0.0100 0.0100 0.0100 0.0100 0.0100 0.0100
0.0100 0.0100 0.0100 0.0100 0.0100 0.0100 0.0100 0.0100
0.0100 0.0100 0.0100 0.0100 0.0100 0.0100 0.0100 0.0100
0.0100 0.0100 0.0100 0.0100 0.0100 0.0100 0.0100 0.0100
0.0100 0.0100 0.0100 0.0100 0.0100 0.0100 0.0100 0.0100
0.0100 0.0100 0.0100 0.0100 0.0100 0.0100 0.0100 0.0100
0.0100 0.0100 0.0100 0.0100 0.0100 0.0100 0.0100 0.0100
0.0100 0.0100 0.0100 0.0100 0.0100 0.0100 0.0100 0.0100
0.0100 0.0100 0.0100 0.0100 0.0100 0.0100 0.0100 0.0100
0.0100 0.0100 0.0100 0.0100 0.0100 0.0100 0.0100 0.0100
0.0100 0.0100 0.0100 0.0100 0.0100 0.0100 0.0100 0.0100
0.0100 0.0100 0.0100 0.0100 0.0100 0.0100 0.0100 0.0100
0.0100 0.0100 0.0100 0.0100 0.0100 0.0100 0.0100 0.0100
0.0100 0.0100 0.0100 0.0100 0.0100 0.0100 0.0100 0.0100
0.0100 0.0100 0.0100 0.0100 0.0100 0.0100 0.0100 0.0100
0.0100 0.0100 0.0100 0.0100 0.0100 0.0100 0.0100 0.0100
0.0100 0.0100 0.0100 0.0100 0.0100 0.0100 0.0100 0.0100
0.0100 0.0100 0.0100 0.0100 0.0100 0.0100 0.0100 0.0100
0.0100 0.0100 0.0100 0.0100 0.0100 0.0100 0.0100 0.0100
0.0100 0.0100 0.0100 0.0100 0.0100 0.0100 0.0100 0.0100
0.0100 0.0100 0.0100 0.0100 0.0100 0.0100 0.0100 0.0100
0.0100 0.0100 0.0100 0.0100 0.0100 0.0100 0.0100 0.0100
0.0100 0.0100 0.0100 0.0100 0.0100 0.0100 0.0100 0.0100
0.0100 0.0100 0.0100 0.0100 0.0100 0.0100 0.0100 0.0100
0.0100 0.0100 0.0100 0.0100 0.0100 0.0100 0.0100 0.0100
0.0100 0.0100 0.0100 0.0100 0.0100 0.0100 0.0100 0.0100
0.0100 0.0100 0.0100 0.0100 0.0100 0.0100 0.0100 0.0100
0.0100 0.0100 0.0100 0.0100 0.0100 0.0100 0.0100 0.0100
0.0100 0.0100 0.0100 0.0100 0.0100 0.0100 0.0100 0.0100
0.0100 0.0100 0.0100 0.0100 0.0100 0.0100 0.0100 0.0100
0.0100 0.0100 0.0100 0.0100 0.0100 0.0100 0.0100 0.0100
0.0100 0.0100 0.0100 0.0100 0.0100 0.0100 0.0100 0.0100
0.0100 0.0100 0.0100 0.0100 0.0100 0.0100 0.0100 0.0100
0.0100 0.0100 0.0100 0.0100 0.0100 0.0100 0.0100 0.0100
0.0100 0.0100 0.0100 0.0100 0.0100 0.0100 0.0100 0.0100
0.0100 0.0100 0.0100 0.0100 0.0100 0.0100 0.0100 0.0100
0.0100 0.0100 0.0100 0.0100 0.0100 0.0100 0.0100 0.0100
0.0100 0.0100 0.0100 0.0100 0.0100 0.0100 0.0100 0.0100
0.0100 0.0100 0.0100 0.0100 0.0100 0.0100 0.0100 0.0100
0.0100 0.0100 0.0100 0.0100 0.0100 0.0100 0.0100 0.0100
0.0100 0.0100 0.0100 0.0100 0.0100 0.0100 0.0100 0.0100
0.0100 0.0100 0.0100 0.0100 0.0100 0.0100 0.0100 0.0100
0.0100 0.0100 0.0100 0.0100 0.0100 0.0100 0.0100 0.0100
0.0100 0.0100 0.0100 0.0100 0.0100 0.0100 0.0100 0.0100
0.0100 0.0100 0.0100 0.0100 0.0100 0.0100 0.0100 0.0100
0.0100 0.0100 0.0100 0.0100 0.0100 0.0100 0.0100 0.0100
0.0100 0.0100 0.0100 0.0100 0.0100 0.0100 0.0100 0.0100
0.0100 0.0100 0.0100 0.0100 0.0100 0.0100 0.0100 0.0100
0.0100 0.0100 0.0100 0.0100 0.0100 0.0100 0.0100 0.0100
0.0100 0.0100 0.0100 0.0100 0.0100 0.0100 0.0100 0.0100
0.0100 0.0100 0.0100 0.0100 0.0100 0.0100 0.0100 0.0100
0.0100 0.0100 0.0100 0.0100 0.0100 0.0100 0.0100 0.0100
0.0100 0.0100 0.0100 0.0100 0.0100 0.0100 0.0100 0.0100
0.0100 0.0100 0.0100 0.0100 0.0100 0.0100 0.0100 0.0100
0.0100 0.0100 0.0100 0.0100 0.0100 0.0100 0.0100 0.0100
0.0100 0.0100 0.0100 0.0100 0.0100 0.0100 0.0100 0.0100
0.0100 0.0100 0.0100 0.0100 0.0100 0.0100 0.0100 0.0100
0.0100 0.0100 0.0100 0.0100 0.0100 0.0100 0.0100 0.0100
0.0100 0.0100 0.0100 0.0100 0.0100 0.0100 0.0100 0.0100
0.0100 0.0100 0.0100 0.0100 0.0100 0.0100 0.0100 0.0100
0.0100 0.0100 0.0100 0.0100 0.0100 0.0100 0.0100 0.0100
0.0100 0.0100 0.0100 0.0100 0.0100 0.0100 0.0100 0.0100
0.0100 0.0100 0.0100 0.0100 0.0100 0.0100 0.0100 0.0100
0.0100 0.0100 0.0100 0.0100 0.0100 0.0100 0.0100 0.0100
0.0100 0.0100 0.0100 0.0100 0.0100 0.0100 0.0100 0.0100
0.0100 0.0100 0.0100 0.0100 0.0100 0.0100 0.0100 0.0100
0.0100 0.0100 0.0100 0.0100 0.0100 0.0100 0.0100 0.0100
0.0100 0.0100 0.0100 0.0100 0.0100 0.0100 0.0100 0.0100
0.0100 0.0100 0.0100 0.0100 0.0100 0.0100 0.0100 0.0100
0.0100 0.0100</PP_RAB></PP_MESH><PP_LOCAL type="real" size="1106" columns="4">
-1.9865321222E+01 -1.9864695336E+01 -1.9862817818E+01 -1.9859689117E+01
-1.9855309978E+01 -1.9849681440E+01 -1.9842804841E+01 -1.9834681816E+01
-1.9825314291E+01 -1.9814704492E+01 -1.9802854933E+01 -1.9789768423E+01
-1.9775448063E+01 -1.9759897242E+01 -1.9743119638E+01 -1.9725119214E+01
-1.9705900220E+01 -1.9685467188E+01 -1.9663824933E+01 -1.9640978547E+01
-1.9616933400E+01 -1.9591695139E+01 -1.9565269680E+01 -1.9537663213E+01
-1.9508882196E+01 -1.9478933350E+01 -1.9447823663E+01 -1.9415560381E+01
-1.9382151011E+01 -1.9347603312E+01 -1.9311925299E+01 -1.9275125237E+01
-1.9237211637E+01 -1.9198193256E+01 -1.9158079092E+01 -1.9116878385E+01
-1.9074600607E+01 -1.9031255466E+01 -1.8986852898E+01 -1.8941403070E+01
-1.8894916368E+01 -1.8847403401E+01 -1.8798874997E+01 -1.8749342196E+01
-1.8698816247E+01 -1.8647308609E+01 -1.8594830942E+01 -1.8541395104E+01
-1.8487013150E+01 -1.8431697326E+01 -1.8375460062E+01 -1.8318313971E+01
-1.8260271844E+01 -1.8201346643E+01 -1.8141551499E+01 -1.8080899702E+01
-1.8019404700E+01 -1.7957080095E+01 -1.7893939629E+01 -1.7829997188E+01
-1.7765266790E+01 -1.7699762580E+01 -1.7633498827E+01 -1.7566489913E+01
-1.7498750330E+01 -1.7430294675E+01 -1.7361137640E+01 -1.7291294011E+01
-1.7220778656E+01 -1.7149606527E+01 -1.7077792648E+01 -1.7005352114E+01
-1.6932300083E+01 -1.6858651777E+01 -1.6784422470E+01 -1.6709627494E+01
-1.6634282225E+01 -1.6558402091E+01 -1.6482002564E+01 -1.6405099159E+01
-1.6327707434E+01 -1.6249842990E+01 -1.6171521470E+01 -1.6092758561E+01
-1.6013569995E+01 -1.5933971549E+01 -1.5853979049E+01 -1.5773608374E+01
-1.5692875454E+01 -1.5611796280E+01 -1.5530386900E+01 -1.5448663430E+01
-1.5366642051E+01 -1.5284339018E+01 -1.5201770661E+01 -1.5118953387E+01
-1.5035903686E+01 -1.4952638130E+01 -1.4869173381E+01 -1.4785526186E+01
-1.4701713382E+01 -1.4617751894E+01 -1.4533658737E+01 -1.4449451014E+01
-1.4365145913E+01 -1.4280760706E+01 -1.4196312742E+01 -1.4111819446E+01
-1.4027298314E+01 -1.3942766901E+01 -1.3858242821E+01 -1.3773743735E+01
-1.3689287345E+01 -1.3604891380E+01 -1.3520573594E+01 -1.3436351746E+01
-1.3352243597E+01 -1.3268266894E+01 -1.3184439360E+01 -1.3100778681E+01
-1.3017302493E+01 -1.2934028370E+01 -1.2850973811E+01 -1.2768156226E+01
-1.2685592926E+01 -1.2603301105E+01 -1.2521297829E+01 -1.2439600024E+01
-1.2358224463E+01 -1.2277187749E+01 -1.2196506308E+01 -1.2116196372E+01
-1.2036273969E+01 -1.1956754906E+01 -1.1877654764E+01 -1.1798988881E+01
-1.1720772339E+01 -1.1643019956E+01 -1.1565746272E+01 -1.1488965540E+01
-1.1412691711E+01 -1.1336938424E+01 -1.1261718998E+01 -1.1187046416E+01
-1.1112933318E+01 -1.1039391989E+01 -1.0966434345E+01 -1.0894071927E+01
-1.0822315885E+01 -1.0751176969E+01 -1.0680665518E+01 -1.0610791446E+01
-1.0541564231E+01 -1.0472992901E+01 -1.0405086023E+01 -1.0337851685E+01
-1.0271297488E+01 -1.0205430523E+01 -1.0140257361E+01 -1.0075784031E+01
-1.0012016007E+01 -9.9489581850E+00 -9.8866148637E+00 -9.8249897241E+00
-9.7640858060E+00 -9.7039054846E+00 -9.6444504454E+00 -9.5857216579E+00
-9.5277193471E+00 -9.4704429672E+00 -9.4138911785E+00 -9.3580617984E+00
-9.3029517685E+00 -9.2485571604E+00 -9.1948730360E+00 -9.1418936993E+00
-9.0896128629E+00 -9.0380228112E+00 -8.9871148279E+00 -8.9368772876E+00
-8.8872934556E+00 -8.8383433663E+00 -8.7900041083E+00 -8.7422522083E+00
-8.6950677568E+00 -8.6484347723E+00 -8.6023396947E+00 -8.5567707400E+00
-8.5117165830E+00 -8.4671642786E+00 -8.4231008571E+00 -8.3795141395E+00
-8.3363922474E+00 -8.2937240306E+00 -8.2514989384E+00 -8.2097066629E+00
-8.1683369994E+00 -8.1273802231E+00 -8.0868270836E+00 -8.0466690658E+00
-8.0068987876E+00 -7.9675098045E+00 -7.9284964366E+00 -7.8898536284E+00
-7.8515764491E+00 -7.8136591174E+00 -7.7760955723E+00 -7.7388795139E+00
-7.7020045861E+00 -7.6654645094E+00 -7.6292537902E+00 -7.5933671998E+00
-7.5577997020E+00 -7.5225463793E+00 -7.4876025072E+00 -7.4529634216E+00
-7.4186245991E+00 -7.3845816924E+00 -7.3508305514E+00 -7.3173671694E+00
-7.2841876503E+00 -7.2512882256E+00 -7.2186652512E+00 -7.1863152067E+00
-7.1542346841E+00 -7.1224203832E+00 -7.0908691071E+00 -7.0595777577E+00
-7.0285433311E+00 -6.9977629131E+00 -6.9672336752E+00 -6.9369528700E+00
-6.9069178274E+00 -6.8771259512E+00 -6.8475747144E+00 -6.8182616567E+00
-6.7891843802E+00 -6.7603405464E+00 -6.7317278730E+00 -6.7033441304E+00
-6.6751871395E+00 -6.6472547676E+00 -6.6195449268E+00 -6.5920555703E+00
-6.5647846907E+00 -6.5377303165E+00 -6.5108905103E+00 -6.4842633666E+00
-6.4578470088E+00 -6.4316395877E+00 -6.4056392790E+00 -6.3798442815E+00
-6.3542528149E+00 -6.3288631182E+00 -6.3036734476E+00 -6.2786820751E+00
-6.2538872864E+00 -6.2292873798E+00 -6.2048806642E+00 -6.1806654580E+00
-6.1566400876E+00 -6.1328028861E+00 -6.1091521921E+00 -6.0856863486E+00
-6.0624037015E+00 -6.0393025995E+00 -6.0163813922E+00 -5.9936384298E+00
-5.9710720624E+00 -5.9486806390E+00 -5.9264625071E+00 -5.9044160121E+00
-5.8825394971E+00 -5.8608313023E+00 -5.8392897646E+00 -5.8179132181E+00
-5.7966999932E+00 -5.7756484173E+00 -5.7547568142E+00 -5.7340235050E+00
-5.7134468077E+00 -5.6930250381E+00 -5.6727565096E+00 -5.6526395344E+00
-5.6326724234E+00 -5.6128534874E+00 -5.5931810373E+00 -5.5736533852E+00
-5.5542688453E+00 -5.5350257343E+00 -5.5159223731E+00 -5.4969570869E+00
-5.4781282071E+00 -5.4594340717E+00 -5.4408730268E+00 -5.4224434276E+00
-5.4041436394E+00 -5.3859720390E+00 -5.3679270158E+00 -5.3500069728E+00
-5.3322103281E+00 -5.3145355157E+00 -5.2969809868E+00 -5.2795452110E+00
-5.2622266772E+00 -5.2450238950E+00 -5.2279353953E+00 -5.2109597314E+00
-5.1940954801E+00 -5.1773412426E+00 -5.1606956449E+00 -5.1441573390E+00
-5.1277250034E+00 -5.1113973437E+00 -5.0951730935E+00 -5.0790510141E+00
-5.0630298956E+00 -5.0471085571E+00 -5.0312858468E+00 -5.0155606421E+00
-4.9999318497E+00 -4.9843984059E+00 -4.9689592763E+00 -4.9536134555E+00
-4.9383599669E+00 -4.9231978629E+00 -4.9081262236E+00 -4.8931441571E+00
-4.8782507986E+00 -4.8634453098E+00 -4.8487268785E+00 -4.8340947175E+00
-4.8195480638E+00 -4.8050861782E+00 -4.7907083440E+00 -4.7764138661E+00
-4.7622020700E+00 -4.7480723011E+00 -4.7340239230E+00 -4.7200563172E+00
-4.7061688814E+00 -4.6923610284E+00 -4.6786321855E+00 -4.6649817927E+00
-4.6514093020E+00 -4.6379141762E+00 -4.6244958875E+00 -4.6111539169E+00
-4.5978877526E+00 -4.5846968892E+00 -4.5715808269E+00 -4.5585390700E+00
-4.5455711263E+00 -4.5326765064E+00 -4.5198547223E+00 -4.5071052869E+00
-4.4944277134E+00 -4.4818215147E+00 -4.4692862022E+00 -4.4568212859E+00
-4.4444262734E+00 -4.4321006702E+00 -4.4198439785E+00 -4.4076556976E+00
-4.3955353232E+00 -4.3834823478E+00 -4.3714962602E+00 -4.3595765455E+00
-4.3477226856E+00 -4.3359341589E+00 -4.3242104406E+00 -4.3125510032E+00
-4.3009553163E+00 -4.2894228474E+00 -4.2779530622E+00 -4.2665454249E+00
-4.2551993988E+00 -4.2439144467E+00 -4.2326900315E+00 -4.2215256169E+00
-4.2104206677E+00 -4.1993746505E+00 -4.1883870344E+00 -4.1774572914E+00
-4.1665848972E+00 -4.1557693315E+00 -4.1450100791E+00 -4.1343066296E+00
-4.1236584786E+00 -4.1130651282E+00 -4.1025260871E+00 -4.0920408713E+00
-4.0816090041E+00 -4.0712300172E+00 -4.0609034505E+00 -4.0506288524E+00
-4.0404057801E+00 -4.0302337998E+00 -4.0201124869E+00 -4.0100414263E+00
-4.0000202117E+00 -3.9900484464E+00 -3.9801257430E+00 -3.9702517231E+00
-3.9604260177E+00 -3.9506482663E+00 -3.9409181175E+00 -3.9312352279E+00
-3.9215992627E+00 -3.9120098949E+00 -3.9024668050E+00 -3.8929696806E+00
-3.8835182164E+00 -3.8741121132E+00 -3.8647510783E+00 -3.8554348241E+00
-3.8461630684E+00 -3.8369355339E+00 -3.8277519474E+00 -3.8186120395E+00
-3.8095155443E+00 -3.8004621990E+00 -3.7914517433E+00 -3.7824839191E+00
-3.7735584698E+00 -3.7646751407E+00 -3.7558336777E+00 -3.7470338277E+00
-3.7382753378E+00 -3.7295579552E+00 -3.7208814271E+00 -3.7122455001E+00
-3.7036499205E+00 -3.6950944333E+00 -3.6865787830E+00 -3.6781027128E+00
-3.6696659648E+00 -3.6612682800E+00 -3.6529093979E+00 -3.6445890568E+00
-3.6363069938E+00 -3.6280629447E+00 -3.6198566443E+00 -3.6116878263E+00
-3.6035562233E+00 -3.5954615673E+00 -3.5874035896E+00 -3.5793820212E+00
-3.5713965927E+00 -3.5634470348E+00 -3.5555330780E+00 -3.5476544538E+00
-3.5398108940E+00 -3.5320021313E+00 -3.5242278997E+00 -3.5164879347E+00
-3.5087819732E+00 -3.5011097543E+00 -3.4934710192E+00 -3.4858655114E+00
-3.4782929773E+00 -3.4707531662E+00 -3.4632458304E+00 -3.4557707254E+00
-3.4483276104E+00 -3.4409162485E+00 -3.4335364063E+00 -3.4261878547E+00
-3.4188703685E+00 -3.4115837268E+00 -3.4043277132E+00 -3.3971021155E+00
-3.3899067262E+00 -3.3827413420E+00 -3.3756057643E+00 -3.3684997987E+00
-3.3614232556E+00 -3.3543759497E+00 -3.3473576998E+00 -3.3403683293E+00
-3.3334076654E+00 -3.3264755393E+00 -3.3195717866E+00 -3.3126962462E+00
-3.3058487607E+00 -3.2990291760E+00 -3.2922373420E+00 -3.2854731102E+00
-3.2787363352E+00 -3.2720268745E+00 -3.2653445882E+00 -3.2586893384E+00
-3.2520609862E+00 -3.2454594025E+00 -3.2388844562E+00 -3.2323360174E+00
-3.2258139568E+00 -3.2193181439E+00 -3.2128484431E+00 -3.2064047368E+00
-3.1999868973E+00 -3.1935947959E+00 -3.1872283015E+00 -3.1808872995E+00
-3.1745717091E+00 -3.1682812970E+00 -3.1620159081E+00 -3.1557753936E+00
-3.1495596154E+00 -3.1433684190E+00 -3.1372015736E+00 -3.1310591889E+00
-3.1249412298E+00 -3.1188476670E+00 -3.1127784706E+00 -3.1067336057E+00
-3.1007130717E+00 -3.0947167247E+00 -3.0887444501E+00 -3.0827961034E+00
-3.0768715081E+00 -3.0709704540E+00 -3.0650929439E+00 -3.0592384432E+00
-3.0534065551E+00 -3.0475969105E+00 -3.0418091431E+00 -3.0360429033E+00
-3.0302976342E+00 -3.0245731904E+00 -3.0188695634E+00 -3.0131866395E+00
-3.0075243424E+00 -3.0018826269E+00 -2.9962614939E+00 -2.9906609665E+00
-2.9850809838E+00 -2.9795215408E+00 -2.9739826306E+00 -2.9684642394E+00
-2.9629663418E+00 -2.9574890564E+00 -2.9520321542E+00 -2.9465954996E+00
-2.9411789633E+00 -2.9357824051E+00 -2.9304056780E+00 -2.9250485728E+00
-2.9197109239E+00 -2.9143927047E+00 -2.9090938057E+00 -2.9038141219E+00
-2.8985535522E+00 -2.8933119983E+00 -2.8880893963E+00 -2.8828856198E+00
-2.8777005615E+00 -2.8725341210E+00 -2.8673861985E+00 -2.8622566947E+00
-2.8571455111E+00 -2.8520525493E+00 -2.8469777127E+00 -2.8419209048E+00
-2.8368820295E+00 -2.8318609916E+00 -2.8268576965E+00 -2.8218720497E+00
-2.8169039579E+00 -2.8119533290E+00 -2.8070200709E+00 -2.8021040925E+00
-2.7972053031E+00 -2.7923236126E+00 -2.7874589319E+00 -2.7826111720E+00
-2.7777802448E+00 -2.7729660628E+00 -2.7681685391E+00 -2.7633875874E+00
-2.7586231219E+00 -2.7538750575E+00 -2.7491433096E+00 -2.7444277944E+00
-2.7397284283E+00 -2.7350451285E+00 -2.7303778129E+00 -2.7257263997E+00
-2.7210908077E+00 -2.7164709564E+00 -2.7118667657E+00 -2.7072781562E+00
-2.7027050488E+00 -2.6981473651E+00 -2.6936050273E+00 -2.6890779579E+00
-2.6845660801E+00 -2.6800693175E+00 -2.6755875944E+00 -2.6711208353E+00
-2.6666689655E+00 -2.6622319106E+00 -2.6578095968E+00 -2.6534019507E+00
-2.6490088996E+00 -2.6446303709E+00 -2.6402662929E+00 -2.6359165941E+00
-2.6315812035E+00 -2.6272600507E+00 -2.6229530656E+00 -2.6186601787E+00
-2.6143813209E+00 -2.6101164234E+00 -2.6058654181E+00 -2.6016282372E+00
-2.5974048134E+00 -2.5931950798E+00 -2.5889989699E+00 -2.5848164178E+00
-2.5806473577E+00 -2.5764917245E+00 -2.5723494535E+00 -2.5682204803E+00
-2.5641047409E+00 -2.5600021720E+00 -2.5559127102E+00 -2.5518362929E+00
-2.5477728579E+00 -2.5437223431E+00 -2.5396846871E+00 -2.5356598287E+00
-2.5316477071E+00 -2.5276482621E+00 -2.5236614336E+00 -2.5196871620E+00
-2.5157253880E+00 -2.5117760529E+00 -2.5078390981E+00 -2.5039144655E+00
-2.5000020974E+00 -2.4961019363E+00 -2.4922139252E+00 -2.4883380074E+00
-2.4844741266E+00 -2.4806222267E+00 -2.4767822523E+00 -2.4729541478E+00
-2.4691378585E+00 -2.4653333297E+00 -2.4615405070E+00 -2.4577593366E+00
-2.4539897649E+00 -2.4502317385E+00 -2.4464852045E+00 -2.4427501103E+00
-2.4390264035E+00 -2.4353140321E+00 -2.4316129446E+00 -2.4279230894E+00
-2.4242444155E+00 -2.4205768723E+00 -2.4169204092E+00 -2.4132749761E+00
-2.4096405232E+00 -2.4060170009E+00 -2.4024043601E+00 -2.3988025517E+00
-2.3952115271E+00 -2.3916312380E+00 -2.3880616363E+00 -2.3845026742E+00
-2.3809543042E+00 -2.3774164791E+00 -2.3738891520E+00 -2.3703722762E+00
-2.3668658053E+00 -2.3633696932E+00 -2.3598838941E+00 -2.3564083624E+00
-2.3529430528E+00 -2.3494879203E+00 -2.3460429201E+00 -2.3426080077E+00
-2.3391831390E+00 -2.3357682698E+00 -2.3323633564E+00 -2.3289683554E+00