<UPF version="2.0.1">
<PP_INFO>

This pseudopotential file has been produced using the code
ONCVPSP  (Optimized Norm-Conservinng Vanderbilt PSeudopotential)
scalar-relativistic version 3.3.0 08/16/2017 by D. R. Hamann
The code is available through a link at URL www.mat-simresearch.com.
Documentation with the package provides a full discription of the
input data below.


While it is not required under the terms of the GNU GPL, it is
suggested that you cite D. R. Hamann, Phys. Rev. B 88, 085117 (2013)
in any publication using these pseudopotentials.

<PP_INPUTFILE>
# ATOM AND REFERENCE CONFIGURATION
# atsym  z   nc   nv     iexc    psfile
Ne 10.00    1    2       4      upf
#
#   n    l    f        energy (Ha)
1    0    2.00
2    0    2.00
2    1    6.00
#
# PSEUDOPOTENTIAL AND OPTIMIZATION
# lmax
1
#
#   l,   rc,      ep,       ncon, nbas, qcut
0   1.30000  -1.33786    4    7   9.00000
1   1.50000  -0.49002    4    7   8.80000
#
# LOCAL POTENTIAL
# lloc, lpopt,  rc(5),   dvloc0
4    5   1.30000      0.00000
#
# VANDERBILT-KLEINMAN-BYLANDER PROJECTORs
# l, nproj, debl
0    2   1.50000
1    2   1.50000
#
# MODEL CORE CHARGE
# icmod, fcfact, rcfact
0   0.00000   0.00000
#
# LOG DERIVATIVE ANALYSIS
# epsh1, epsh2, depsh
-12.00   12.00    0.02
#
# OUTPUT GRID
# rlmax, drl
4.00    0.01
#
# TEST CONFIGURATIONS
# ncnf
0
# nvcnf
#   n    l    f
</PP_INPUTFILE>
</PP_INFO>
<!--                               -->
<!-- END OF HUMAN READABLE SECTION -->
<!--                               -->
<PP_HEADER
generated="Generated using ONCVPSP code by D. R. Hamann"
author="anonymous"
date="171031"
comment=""
element="Ne"
pseudo_type="NC"
relativistic="scalar"
is_ultrasoft="F"
is_paw="F"
is_coulomb="F"
has_so="F"
has_wfc="F"
has_gipaw="F"
core_correction="F"
functional="PBE"
z_valence="    8.00"
total_psenergy="  -6.78348543660E+01"
rho_cutoff="   7.57000000000E+00"
l_max="1"
l_local="-1"
mesh_size="   758"
number_of_wfc="2"
number_of_proj="4"/>
<PP_MESH>
<PP_R type="real"  size=" 758" columns="8">
0.0000    0.0100    0.0200    0.0300    0.0400    0.0500    0.0600    0.0700
0.0800    0.0900    0.1000    0.1100    0.1200    0.1300    0.1400    0.1500
0.1600    0.1700    0.1800    0.1900    0.2000    0.2100    0.2200    0.2300
0.2400    0.2500    0.2600    0.2700    0.2800    0.2900    0.3000    0.3100
0.3200    0.3300    0.3400    0.3500    0.3600    0.3700    0.3800    0.3900
0.4000    0.4100    0.4200    0.4300    0.4400    0.4500    0.4600    0.4700
0.4800    0.4900    0.5000    0.5100    0.5200    0.5300    0.5400    0.5500
0.5600    0.5700    0.5800    0.5900    0.6000    0.6100    0.6200    0.6300
0.6400    0.6500    0.6600    0.6700    0.6800    0.6900    0.7000    0.7100
0.7200    0.7300    0.7400    0.7500    0.7600    0.7700    0.7800    0.7900
0.8000    0.8100    0.8200    0.8300    0.8400    0.8500    0.8600    0.8700
0.8800    0.8900    0.9000    0.9100    0.9200    0.9300    0.9400    0.9500
0.9600    0.9700    0.9800    0.9900    1.0000    1.0100    1.0200    1.0300
1.0400    1.0500    1.0600    1.0700    1.0800    1.0900    1.1000    1.1100
1.1200    1.1300    1.1400    1.1500    1.1600    1.1700    1.1800    1.1900
1.2000    1.2100    1.2200    1.2300    1.2400    1.2500    1.2600    1.2700
1.2800    1.2900    1.3000    1.3100    1.3200    1.3300    1.3400    1.3500
1.3600    1.3700    1.3800    1.3900    1.4000    1.4100    1.4200    1.4300
1.4400    1.4500    1.4600    1.4700    1.4800    1.4900    1.5000    1.5100
1.5200    1.5300    1.5400    1.5500    1.5600    1.5700    1.5800    1.5900
1.6000    1.6100    1.6200    1.6300    1.6400    1.6500    1.6600    1.6700
1.6800    1.6900    1.7000    1.7100    1.7200    1.7300    1.7400    1.7500
1.7600    1.7700    1.7800    1.7900    1.8000    1.8100    1.8200    1.8300
1.8400    1.8500    1.8600    1.8700    1.8800    1.8900    1.9000    1.9100
1.9200    1.9300    1.9400    1.9500    1.9600    1.9700    1.9800    1.9900
2.0000    2.0100    2.0200    2.0300    2.0400    2.0500    2.0600    2.0700
2.0800    2.0900    2.1000    2.1100    2.1200    2.1300    2.1400    2.1500
2.1600    2.1700    2.1800    2.1900    2.2000    2.2100    2.2200    2.2300
2.2400    2.2500    2.2600    2.2700    2.2800    2.2900    2.3000    2.3100
2.3200    2.3300    2.3400    2.3500    2.3600    2.3700    2.3800    2.3900
2.4000    2.4100    2.4200    2.4300    2.4400    2.4500    2.4600    2.4700
2.4800    2.4900    2.5000    2.5100    2.5200    2.5300    2.5400    2.5500
2.5600    2.5700    2.5800    2.5900    2.6000    2.6100    2.6200    2.6300
2.6400    2.6500    2.6600    2.6700    2.6800    2.6900    2.7000    2.7100
2.7200    2.7300    2.7400    2.7500    2.7600    2.7700    2.7800    2.7900
2.8000    2.8100    2.8200    2.8300    2.8400    2.8500    2.8600    2.8700
2.8800    2.8900    2.9000    2.9100    2.9200    2.9300    2.9400    2.9500
2.9600    2.9700    2.9800    2.9900    3.0000    3.0100    3.0200    3.0300
3.0400    3.0500    3.0600    3.0700    3.0800    3.0900    3.1000    3.1100
3.1200    3.1300    3.1400    3.1500    3.1600    3.1700    3.1800    3.1900
3.2000    3.2100    3.2200    3.2300    3.2400    3.2500    3.2600    3.2700
3.2800    3.2900    3.3000    3.3100    3.3200    3.3300    3.3400    3.3500
3.3600    3.3700    3.3800    3.3900    3.4000    3.4100    3.4200    3.4300
3.4400    3.4500    3.4600    3.4700    3.4800    3.4900    3.5000    3.5100
3.5200    3.5300    3.5400    3.5500    3.5600    3.5700    3.5800    3.5900
3.6000    3.6100    3.6200    3.6300    3.6400    3.6500    3.6600    3.6700
3.6800    3.6900    3.7000    3.7100    3.7200    3.7300    3.7400    3.7500
3.7600    3.7700    3.7800    3.7900    3.8000    3.8100    3.8200    3.8300
3.8400    3.8500    3.8600    3.8700    3.8800    3.8900    3.9000    3.9100
3.9200    3.9300    3.9400    3.9500    3.9600    3.9700    3.9800    3.9900
4.0000    4.0100    4.0200    4.0300    4.0400    4.0500    4.0600    4.0700
4.0800    4.0900    4.1000    4.1100    4.1200    4.1300    4.1400    4.1500
4.1600    4.1700    4.1800    4.1900    4.2000    4.2100    4.2200    4.2300
4.2400    4.2500    4.2600    4.2700    4.2800    4.2900    4.3000    4.3100
4.3200    4.3300    4.3400    4.3500    4.3600    4.3700    4.3800    4.3900
4.4000    4.4100    4.4200    4.4300    4.4400    4.4500    4.4600    4.4700
4.4800    4.4900    4.5000    4.5100    4.5200    4.5300    4.5400    4.5500
4.5600    4.5700    4.5800    4.5900    4.6000    4.6100    4.6200    4.6300
4.6400    4.6500    4.6600    4.6700    4.6800    4.6900    4.7000    4.7100
4.7200    4.7300    4.7400    4.7500    4.7600    4.7700    4.7800    4.7900
4.8000    4.8100    4.8200    4.8300    4.8400    4.8500    4.8600    4.8700
4.8800    4.8900    4.9000    4.9100    4.9200    4.9300    4.9400    4.9500
4.9600    4.9700    4.9800    4.9900    5.0000    5.0100    5.0200    5.0300
5.0400    5.0500    5.0600    5.0700    5.0800    5.0900    5.1000    5.1100
5.1200    5.1300    5.1400    5.1500    5.1600    5.1700    5.1800    5.1900
5.2000    5.2100    5.2200    5.2300    5.2400    5.2500    5.2600    5.2700
5.2800    5.2900    5.3000    5.3100    5.3200    5.3300    5.3400    5.3500
5.3600    5.3700    5.3800    5.3900    5.4000    5.4100    5.4200    5.4300
5.4400    5.4500    5.4600    5.4700    5.4800    5.4900    5.5000    5.5100
5.5200    5.5300    5.5400    5.5500    5.5600    5.5700    5.5800    5.5900
5.6000    5.6100    5.6200    5.6300    5.6400    5.6500    5.6600    5.6700
5.6800    5.6900    5.7000    5.7100    5.7200    5.7300    5.7400    5.7500
5.7600    5.7700    5.7800    5.7900    5.8000    5.8100    5.8200    5.8300
5.8400    5.8500    5.8600    5.8700    5.8800    5.8900    5.9000    5.9100
5.9200    5.9300    5.9400    5.9500    5.9600    5.9700    5.9800    5.9900
6.0000    6.0100    6.0200    6.0300    6.0400    6.0500    6.0600    6.0700
6.0800    6.0900    6.1000    6.1100    6.1200    6.1300    6.1400    6.1500
6.1600    6.1700    6.1800    6.1900    6.2000    6.2100    6.2200    6.2300
6.2400    6.2500    6.2600    6.2700    6.2800    6.2900    6.3000    6.3100
6.3200    6.3300    6.3400    6.3500    6.3600    6.3700    6.3800    6.3900
6.4000    6.4100    6.4200    6.4300    6.4400    6.4500    6.4600    6.4700
6.4800    6.4900    6.5000    6.5100    6.5200    6.5300    6.5400    6.5500
6.5600    6.5700    6.5800    6.5900    6.6000    6.6100    6.6200    6.6300
6.6400    6.6500    6.6600    6.6700    6.6800    6.6900    6.7000    6.7100
6.7200    6.7300    6.7400    6.7500    6.7600    6.7700    6.7800    6.7900
6.8000    6.8100    6.8200    6.8300    6.8400    6.8500    6.8600    6.8700
6.8800    6.8900    6.9000    6.9100    6.9200    6.9300    6.9400    6.9500
6.9600    6.9700    6.9800    6.9900    7.0000    7.0100    7.0200    7.0300
7.0400    7.0500    7.0600    7.0700    7.0800    7.0900    7.1000    7.1100
7.1200    7.1300    7.1400    7.1500    7.1600    7.1700    7.1800    7.1900
7.2000    7.2100    7.2200    7.2300    7.2400    7.2500    7.2600    7.2700
7.2800    7.2900    7.3000    7.3100    7.3200    7.3300    7.3400    7.3500
7.3600    7.3700    7.3800    7.3900    7.4000    7.4100    7.4200    7.4300
7.4400    7.4500    7.4600    7.4700    7.4800    7.4900    7.5000    7.5100
7.5200    7.5300    7.5400    7.5500    7.5600    7.5700
</PP_R>
<PP_RAB type="real"  size=" 758" columns="8">
0.0100    0.0100    0.0100    0.0100    0.0100    0.0100    0.0100    0.0100
0.0100    0.0100    0.0100    0.0100    0.0100    0.0100    0.0100    0.0100
0.0100    0.0100    0.0100    0.0100    0.0100    0.0100    0.0100    0.0100
0.0100    0.0100    0.0100    0.0100    0.0100    0.0100    0.0100    0.0100
0.0100    0.0100    0.0100    0.0100    0.0100    0.0100    0.0100    0.0100
0.0100    0.0100    0.0100    0.0100    0.0100    0.0100    0.0100    0.0100
0.0100    0.0100    0.0100    0.0100    0.0100    0.0100    0.0100    0.0100
0.0100    0.0100    0.0100    0.0100    0.0100    0.0100    0.0100    0.0100
0.0100    0.0100    0.0100    0.0100    0.0100    0.0100    0.0100    0.0100
0.0100    0.0100    0.0100    0.0100    0.0100    0.0100    0.0100    0.0100
0.0100    0.0100    0.0100    0.0100    0.0100    0.0100    0.0100    0.0100
0.0100    0.0100    0.0100    0.0100    0.0100    0.0100    0.0100    0.0100
0.0100    0.0100    0.0100    0.0100    0.0100    0.0100    0.0100    0.0100
0.0100    0.0100    0.0100    0.0100    0.0100    0.0100    0.0100    0.0100
0.0100    0.0100    0.0100    0.0100    0.0100    0.0100    0.0100    0.0100
0.0100    0.0100    0.0100    0.0100    0.0100    0.0100    0.0100    0.0100
0.0100    0.0100    0.0100    0.0100    0.0100    0.0100    0.0100    0.0100
0.0100    0.0100    0.0100    0.0100    0.0100    0.0100    0.0100    0.0100
0.0100    0.0100    0.0100    0.0100    0.0100    0.0100    0.0100    0.0100
0.0100    0.0100    0.0100    0.0100    0.0100    0.0100    0.0100    0.0100
0.0100    0.0100    0.0100    0.0100    0.0100    0.0100    0.0100    0.0100
0.0100    0.0100    0.0100    0.0100    0.0100    0.0100    0.0100    0.0100
0.0100    0.0100    0.0100    0.0100    0.0100    0.0100    0.0100    0.0100
0.0100    0.0100    0.0100    0.0100    0.0100    0.0100    0.0100    0.0100
0.0100    0.0100    0.0100    0.0100    0.0100    0.0100    0.0100    0.0100
0.0100    0.0100    0.0100    0.0100    0.0100    0.0100    0.0100    0.0100
0.0100    0.0100    0.0100    0.0100    0.0100    0.0100    0.0100    0.0100
0.0100    0.0100    0.0100    0.0100    0.0100    0.0100    0.0100    0.0100
0.0100    0.0100    0.0100    0.0100    0.0100    0.0100    0.0100    0.0100
0.0100    0.0100    0.0100    0.0100    0.0100    0.0100    0.0100    0.0100
0.0100    0.0100    0.0100    0.0100    0.0100    0.0100    0.0100    0.0100
0.0100    0.0100    0.0100    0.0100    0.0100    0.0100    0.0100    0.0100
0.0100    0.0100    0.0100    0.0100    0.0100    0.0100    0.0100    0.0100
0.0100    0.0100    0.0100    0.0100    0.0100    0.0100    0.0100    0.0100
0.0100    0.0100    0.0100    0.0100    0.0100    0.0100    0.0100    0.0100
0.0100    0.0100    0.0100    0.0100    0.0100    0.0100    0.0100    0.0100
0.0100    0.0100    0.0100    0.0100    0.0100    0.0100    0.0100    0.0100
0.0100    0.0100    0.0100    0.0100    0.0100    0.0100    0.0100    0.0100
0.0100    0.0100    0.0100    0.0100    0.0100    0.0100    0.0100    0.0100
0.0100    0.0100    0.0100    0.0100    0.0100    0.0100    0.0100    0.0100
0.0100    0.0100    0.0100    0.0100    0.0100    0.0100    0.0100    0.0100
0.0100    0.0100    0.0100    0.0100    0.0100    0.0100    0.0100    0.0100
0.0100    0.0100    0.0100    0.0100    0.0100    0.0100    0.0100    0.0100
0.0100    0.0100    0.0100    0.0100    0.0100    0.0100    0.0100    0.0100
0.0100    0.0100    0.0100    0.0100    0.0100    0.0100    0.0100    0.0100
0.0100    0.0100    0.0100    0.0100    0.0100    0.0100    0.0100    0.0100
0.0100    0.0100    0.0100    0.0100    0.0100    0.0100    0.0100    0.0100
0.0100    0.0100    0.0100    0.0100    0.0100    0.0100    0.0100    0.0100
0.0100    0.0100    0.0100    0.0100    0.0100    0.0100    0.0100    0.0100
0.0100    0.0100    0.0100    0.0100    0.0100    0.0100    0.0100    0.0100
0.0100    0.0100    0.0100    0.0100    0.0100    0.0100    0.0100    0.0100
0.0100    0.0100    0.0100    0.0100    0.0100    0.0100    0.0100    0.0100
0.0100    0.0100    0.0100    0.0100    0.0100    0.0100    0.0100    0.0100
0.0100    0.0100    0.0100    0.0100    0.0100    0.0100    0.0100    0.0100
0.0100    0.0100    0.0100    0.0100    0.0100    0.0100    0.0100    0.0100
0.0100    0.0100    0.0100    0.0100    0.0100    0.0100    0.0100    0.0100
0.0100    0.0100    0.0100    0.0100    0.0100    0.0100    0.0100    0.0100
0.0100    0.0100    0.0100    0.0100    0.0100    0.0100    0.0100    0.0100
0.0100    0.0100    0.0100    0.0100    0.0100    0.0100    0.0100    0.0100
0.0100    0.0100    0.0100    0.0100    0.0100    0.0100    0.0100    0.0100
0.0100    0.0100    0.0100    0.0100    0.0100    0.0100    0.0100    0.0100
0.0100    0.0100    0.0100    0.0100    0.0100    0.0100    0.0100    0.0100
0.0100    0.0100    0.0100    0.0100    0.0100    0.0100    0.0100    0.0100
0.0100    0.0100    0.0100    0.0100    0.0100    0.0100    0.0100    0.0100
0.0100    0.0100    0.0100    0.0100    0.0100    0.0100    0.0100    0.0100
0.0100    0.0100    0.0100    0.0100    0.0100    0.0100    0.0100    0.0100
0.0100    0.0100    0.0100    0.0100    0.0100    0.0100    0.0100    0.0100
0.0100    0.0100    0.0100    0.0100    0.0100    0.0100    0.0100    0.0100
0.0100    0.0100    0.0100    0.0100    0.0100    0.0100    0.0100    0.0100
0.0100    0.0100    0.0100    0.0100    0.0100    0.0100    0.0100    0.0100
0.0100    0.0100    0.0100    0.0100    0.0100    0.0100    0.0100    0.0100
0.0100    0.0100    0.0100    0.0100    0.0100    0.0100    0.0100    0.0100
0.0100    0.0100    0.0100    0.0100    0.0100    0.0100    0.0100    0.0100
0.0100    0.0100    0.0100    0.0100    0.0100    0.0100    0.0100    0.0100
0.0100    0.0100    0.0100    0.0100    0.0100    0.0100    0.0100    0.0100
0.0100    0.0100    0.0100    0.0100    0.0100    0.0100    0.0100    0.0100
0.0100    0.0100    0.0100    0.0100    0.0100    0.0100    0.0100    0.0100
0.0100    0.0100    0.0100    0.0100    0.0100    0.0100    0.0100    0.0100
0.0100    0.0100    0.0100    0.0100    0.0100    0.0100    0.0100    0.0100
0.0100    0.0100    0.0100    0.0100    0.0100    0.0100    0.0100    0.0100
0.0100    0.0100    0.0100    0.0100    0.0100    0.0100    0.0100    0.0100
0.0100    0.0100    0.0100    0.0100    0.0100    0.0100    0.0100    0.0100
0.0100    0.0100    0.0100    0.0100    0.0100    0.0100    0.0100    0.0100
0.0100    0.0100    0.0100    0.0100    0.0100    0.0100    0.0100    0.0100
0.0100    0.0100    0.0100    0.0100    0.0100    0.0100    0.0100    0.0100
0.0100    0.0100    0.0100    0.0100    0.0100    0.0100    0.0100    0.0100
0.0100    0.0100    0.0100    0.0100    0.0100    0.0100    0.0100    0.0100
0.0100    0.0100    0.0100    0.0100    0.0100    0.0100    0.0100    0.0100
0.0100    0.0100    0.0100    0.0100    0.0100    0.0100    0.0100    0.0100
0.0100    0.0100    0.0100    0.0100    0.0100    0.0100    0.0100    0.0100
0.0100    0.0100    0.0100    0.0100    0.0100    0.0100    0.0100    0.0100
0.0100    0.0100    0.0100    0.0100    0.0100    0.0100    0.0100    0.0100
0.0100    0.0100    0.0100    0.0100    0.0100    0.0100    0.0100    0.0100
0.0100    0.0100    0.0100    0.0100    0.0100    0.0100    0.0100    0.0100
0.0100    0.0100    0.0100    0.0100    0.0100    0.0100
</PP_RAB>
</PP_MESH>
<PP_LOCAL type="real"  size=" 758" columns="4">
-2.7562396513E+01   -2.7604756945E+01   -2.7716599367E+01   -2.7853944728E+01
-2.7976055906E+01   -2.8059542675E+01   -2.8098287983E+01   -2.8096526050E+01
-2.8062402801E+01   -2.8004233116E+01   -2.7928960077E+01   -2.7841832695E+01
-2.7746601844E+01   -2.7645864208E+01   -2.7541393529E+01   -2.7434405432E+01
-2.7325749438E+01   -2.7216039378E+01   -2.7105737482E+01   -2.6995206148E+01
-2.6884738350E+01   -2.6774574619E+01   -2.6664911919E+01   -2.6555907807E+01
-2.6447681905E+01   -2.6340315804E+01   -2.6233852000E+01   -2.6128292183E+01
-2.6023595087E+01   -2.5919674164E+01   -2.5816395383E+01   -2.5713575640E+01
-2.5610982297E+01   -2.5508334512E+01   -2.5405306932E+01   -2.5301536263E+01
-2.5196630977E+01   -2.5090184060E+01   -2.4981788330E+01   -2.4871053397E+01
-2.4757623011E+01   -2.4641191299E+01   -2.4521516416E+01   -2.4398430324E+01
-2.4271843849E+01   -2.4141746703E+01   -2.4008202734E+01   -2.3871341188E+01
-2.3731345095E+01   -2.3588438091E+01   -2.3442870925E+01   -2.3294908739E+01
-2.3144819913E+01   -2.2992866977E+01   -2.2839299757E+01   -2.2684350718E+01
-2.2528232268E+01   -2.2371135696E+01   -2.2213231378E+01   -2.2054669891E+01
-2.1895583714E+01   -2.1736089246E+01   -2.1576288943E+01   -2.1416273415E+01
-2.1256123374E+01   -2.1095911403E+01   -2.0935703475E+01   -2.0775560253E+01
-2.0615538152E+01   -2.0455690199E+01   -2.0296066709E+01   -2.0136715790E+01
-1.9977683735E+01   -1.9819015280E+01   -1.9660753797E+01   -1.9502941404E+01
-1.9345619028E+01   -1.9188826438E+01   -1.9032602242E+01   -1.8876983878E+01
-1.8722007596E+01   -1.8567708436E+01   -1.8414120216E+01   -1.8261275520E+01
-1.8109205704E+01   -1.7957940910E+01   -1.7807510088E+01   -1.7657941035E+01
-1.7509260446E+01   -1.7361493973E+01   -1.7214666290E+01   -1.7068801168E+01
-1.6923921556E+01   -1.6780049660E+01   -1.6637207024E+01   -1.6495414608E+01
-1.6354692861E+01   -1.6215061786E+01   -1.6076540996E+01   -1.5939149761E+01
-1.5802907037E+01   -1.5667831491E+01   -1.5533941502E+01   -1.5401255154E+01
-1.5269790212E+01   -1.5139564089E+01   -1.5010593794E+01   -1.4882895874E+01
-1.4756486347E+01   -1.4631380623E+01   -1.4507593421E+01   -1.4385138686E+01
-1.4264029503E+01   -1.4144278006E+01   -1.4025895297E+01   -1.3908891368E+01
-1.3793275024E+01   -1.3679053820E+01   -1.3566233998E+01   -1.3454820441E+01
-1.3344816626E+01   -1.3236224593E+01   -1.3129044915E+01   -1.3023276675E+01
-1.2918917453E+01   -1.2815963300E+01   -1.2714408722E+01   -1.2614246695E+01
-1.2515468548E+01   -1.2418063966E+01   -1.2322020983E+01   -1.2227326979E+01
-1.2133969566E+01   -1.2041939003E+01   -1.1951224247E+01   -1.1861809209E+01
-1.1773679141E+01   -1.1686821044E+01   -1.1601221599E+01   -1.1516867597E+01
-1.1433745674E+01   -1.1351842064E+01   -1.1271142379E+01   -1.1191631401E+01
-1.1113292892E+01   -1.1036109451E+01   -1.0960062196E+01   -1.0885130891E+01
-1.0811294090E+01   -1.0738528760E+01   -1.0666810206E+01   -1.0596107254E+01
-1.0526382077E+01   -1.0457589939E+01   -1.0389686774E+01   -1.0322652551E+01
-1.0256479900E+01   -1.0191151658E+01   -1.0126649766E+01   -1.0062959144E+01
-1.0000064722E+01   -9.9379516192E+00   -9.8766053569E+00   -9.8160118246E+00
-9.7561572526E+00   -9.6970282047E+00   -9.6386115686E+00   -9.5808945461E+00
-9.5238646437E+00   -9.4675096636E+00   -9.4118176950E+00   -9.3567771059E+00
-9.3023765346E+00   -9.2486048822E+00   -9.1954513050E+00   -9.1429052072E+00
-9.0909562337E+00   -9.0395942636E+00   -8.9888094032E+00   -8.9385919801E+00
-8.8889325369E+00   -8.8398218250E+00   -8.7912507992E+00   -8.7432106121E+00
-8.6956926084E+00   -8.6486883203E+00   -8.6021894617E+00   -8.5561879242E+00
-8.5106757716E+00   -8.4656452357E+00   -8.4210887120E+00   -8.3769987552E+00
-8.3333680750E+00   -8.2901895324E+00   -8.2474561355E+00   -8.2051610358E+00
-8.1632975246E+00   -8.1218590294E+00   -8.0808391106E+00   -8.0402314580E+00
-8.0000298874E+00   -7.9602283379E+00   -7.9208208685E+00   -7.8818016553E+00
-7.8431649888E+00   -7.8049052709E+00   -7.7670170118E+00   -7.7294948278E+00
-7.6923334391E+00   -7.6555276667E+00   -7.6190724307E+00   -7.5829627470E+00
-7.5471937257E+00   -7.5117605687E+00   -7.4766585675E+00   -7.4418831015E+00
-7.4074296355E+00   -7.3732937177E+00   -7.3394709782E+00   -7.3059571270E+00
-7.2727479519E+00   -7.2398393171E+00   -7.2072271611E+00   -7.1749074954E+00
-7.1428764029E+00   -7.1111300357E+00   -7.0796646145E+00   -7.0484764261E+00
-7.0175618229E+00   -6.9869172207E+00   -6.9565390977E+00   -6.9264239932E+00
-6.8965685060E+00   -6.8669692934E+00   -6.8376230699E+00   -6.8085266057E+00
-6.7796767259E+00   -6.7510703093E+00   -6.7227042868E+00   -6.6945756410E+00
-6.6666814047E+00   -6.6390186598E+00   -6.6115845367E+00   -6.5843762127E+00
-6.5573909116E+00   -6.5306259026E+00   -6.5040784990E+00   -6.4777460580E+00
-6.4516259790E+00   -6.4257157034E+00   -6.4000127137E+00   -6.3745145322E+00
-6.3492187207E+00   -6.3241228795E+00   -6.2992246468E+00   -6.2745216976E+00
-6.2500117434E+00   -6.2256925314E+00   -6.2015618436E+00   -6.1776174963E+00
-6.1538573392E+00   -6.1302792553E+00   -6.1068811597E+00   -6.0836609993E+00
-6.0606167519E+00   -6.0377464261E+00   -6.0150480604E+00   -5.9925197225E+00
-5.9701595091E+00   -5.9479655451E+00   -5.9259359833E+00   -5.9040690037E+00
-5.8823628130E+00   -5.8608156443E+00   -5.8394257565E+00   -5.8181914336E+00
-5.7971109847E+00   -5.7761827432E+00   -5.7554050667E+00   -5.7347763359E+00
-5.7142949551E+00   -5.6939593511E+00   -5.6737679730E+00   -5.6537192918E+00
-5.6338118002E+00   -5.6140440119E+00   -5.5944144614E+00   -5.5749217037E+00
-5.5555643138E+00   -5.5363408864E+00   -5.5172500358E+00   -5.4982903950E+00
-5.4794606160E+00   -5.4607593692E+00   -5.4421853428E+00   -5.4237372432E+00
-5.4054137939E+00   -5.3872137359E+00   -5.3691358268E+00   -5.3511788412E+00
-5.3333415697E+00   -5.3156228191E+00   -5.2980214120E+00   -5.2805361865E+00
-5.2631659962E+00   -5.2459097094E+00   -5.2287662095E+00   -5.2117343942E+00
-5.1948131757E+00   -5.1780014802E+00   -5.1612982477E+00   -5.1447024320E+00
-5.1282130001E+00   -5.1118289325E+00   -5.0955492223E+00   -5.0793728758E+00
-5.0632989115E+00   -5.0473263605E+00   -5.0314542661E+00   -5.0156816834E+00
-5.0000076797E+00   -4.9844313335E+00   -4.9689517349E+00   -4.9535679854E+00
-4.9382791974E+00   -4.9230844944E+00   -4.9079830105E+00   -4.8929738905E+00
-4.8780562895E+00   -4.8632293731E+00   -4.8484923168E+00   -4.8338443061E+00
-4.8192845364E+00   -4.8048122128E+00   -4.7904265497E+00   -4.7761267711E+00
-4.7619121102E+00   -4.7477818091E+00   -4.7337351193E+00   -4.7197713006E+00
-4.7058896219E+00   -4.6920893605E+00   -4.6783698023E+00   -4.6647302413E+00
-4.6511699799E+00   -4.6376883286E+00   -4.6242846056E+00   -4.6109581374E+00
-4.5977082579E+00   -4.5845343087E+00   -4.5714356391E+00   -4.5584116054E+00
-4.5454615718E+00   -4.5325849092E+00   -4.5197809959E+00   -4.5070492171E+00
-4.4943889649E+00   -4.4817996382E+00   -4.4692806428E+00   -4.4568313907E+00
-4.4444513010E+00   -4.4321397987E+00   -4.4198963155E+00   -4.4077202893E+00
-4.3956111641E+00   -4.3835683899E+00   -4.3715914230E+00   -4.3596797255E+00
-4.3478327651E+00   -4.3360500157E+00   -4.3243309565E+00   -4.3126750726E+00
-4.3010818545E+00   -4.2895507982E+00   -4.2780814050E+00   -4.2666731816E+00
-4.2553256400E+00   -4.2440382974E+00   -4.2328106758E+00   -4.2216423027E+00
-4.2105327102E+00   -4.1994814356E+00   -4.1884880208E+00   -4.1775520126E+00
-4.1666729625E+00   -4.1558504268E+00   -4.1450839661E+00   -4.1343731458E+00
-4.1237175357E+00   -4.1131167100E+00   -4.1025702473E+00   -4.0920777305E+00
-4.0816387467E+00   -4.0712528872E+00   -4.0609197477E+00   -4.0506389277E+00
-4.0404100307E+00   -4.0302326646E+00   -4.0201064407E+00   -4.0100309747E+00
-4.0000058859E+00   -3.9900307972E+00   -3.9801053357E+00   -3.9702291319E+00
-3.9604018200E+00   -3.9506230379E+00   -3.9408924269E+00   -3.9312096320E+00
-3.9215743017E+00   -3.9119860877E+00   -3.9024446453E+00   -3.8929496331E+00
-3.8835007131E+00   -3.8740975504E+00   -3.8647398134E+00   -3.8554271739E+00
-3.8461593065E+00   -3.8369358891E+00   -3.8277566028E+00   -3.8186211316E+00
-3.8095291625E+00   -3.8004803856E+00   -3.7914744937E+00   -3.7825111827E+00
-3.7735901514E+00   -3.7647111013E+00   -3.7558737368E+00   -3.7470777649E+00
-3.7383228957E+00   -3.7296088415E+00   -3.7209353178E+00   -3.7123020423E+00
-3.7037087356E+00   -3.6951551208E+00   -3.6866409234E+00   -3.6781658717E+00
-3.6697296963E+00   -3.6613321304E+00   -3.6529729094E+00   -3.6446517713E+00
-3.6363684565E+00   -3.6281227077E+00   -3.6199142699E+00   -3.6117428905E+00
-3.6036083190E+00   -3.5955103073E+00   -3.5874486095E+00   -3.5794229819E+00
-3.5714331830E+00   -3.5634789733E+00   -3.5555601156E+00   -3.5476763747E+00
-3.5398275176E+00   -3.5320133132E+00   -3.5242335326E+00   -3.5164879488E+00
-3.5087763368E+00   -3.5010984737E+00   -3.4934541383E+00   -3.4858431115E+00
-3.4782651761E+00   -3.4707201168E+00   -3.4632077200E+00   -3.4557277742E+00
-3.4482800694E+00   -3.4408643978E+00   -3.4334805531E+00   -3.4261283309E+00
-3.4188075284E+00   -3.4115179446E+00   -3.4042593803E+00   -3.3970316380E+00
-3.3898345217E+00   -3.3826678371E+00   -3.3755313917E+00   -3.3684249945E+00
-3.3613484561E+00   -3.3543015887E+00   -3.3472842062E+00   -3.3402961237E+00
-3.3333371583E+00   -3.3264071283E+00   -3.3195058535E+00   -3.3126331555E+00
-3.3057888571E+00   -3.2989727826E+00   -3.2921847578E+00   -3.2854246099E+00
-3.2786921676E+00   -3.2719872608E+00   -3.2653097210E+00   -3.2586593809E+00
-3.2520360748E+00   -3.2454396381E+00   -3.2388699076E+00   -3.2323267215E+00
-3.2258099192E+00   -3.2193193415E+00   -3.2128548304E+00   -3.2064162291E+00
-3.2000033823E+00   -3.1936161358E+00   -3.1872543364E+00   -3.1809178325E+00
-3.1746064734E+00   -3.1683201099E+00   -3.1620585936E+00   -3.1558217777E+00
-3.1496095162E+00   -3.1434216643E+00   -3.1372580786E+00   -3.1311186165E+00
-3.1250031368E+00   -3.1189114991E+00   -3.1128435642E+00   -3.1067991943E+00
-3.1007782521E+00   -3.0947806018E+00   -3.0888061085E+00   -3.0828546383E+00
-3.0769260584E+00   -3.0710202370E+00   -3.0651370433E+00   -3.0592763475E+00
-3.0534380208E+00   -3.0476219354E+00   -3.0418279644E+00   -3.0360559820E+00
-3.0303058631E+00   -3.0245774839E+00   -3.0188707212E+00   -3.0131854530E+00
-3.0075215580E+00   -3.0018789159E+00   -2.9962574073E+00   -2.9906569138E+00
-2.9850773177E+00   -2.9795185022E+00   -2.9739803514E+00   -2.9684627505E+00
-2.9629655851E+00   -2.9574887421E+00   -2.9520321088E+00   -2.9465955736E+00
-2.9411790257E+00   -2.9357823552E+00   -2.9304054526E+00   -2.9250482098E+00
-2.9197105189E+00   -2.9143922732E+00   -2.9090933667E+00   -2.9038136939E+00
-2.8985531504E+00   -2.8933116325E+00   -2.8880890370E+00   -2.8828852618E+00
-2.8777002051E+00   -2.8725337664E+00   -2.8673858453E+00   -2.8622563427E+00
-2.8571451597E+00   -2.8520521984E+00   -2.8469773616E+00   -2.8419205527E+00
-2.8368816757E+00   -2.8318606356E+00   -2.8268573376E+00   -2.8218716880E+00
-2.8169035936E+00   -2.8119529617E+00   -2.8070197006E+00   -2.8021037188E+00
-2.7972049258E+00   -2.7923232316E+00   -2.7874585468E+00   -2.7826107828E+00
-2.7777798512E+00   -2.7729656647E+00   -2.7681681364E+00   -2.7633871798E+00
-2.7586227093E+00   -2.7538746398E+00   -2.7491428867E+00   -2.7444273661E+00
-2.7397279946E+00   -2.7350446893E+00   -2.7303773681E+00   -2.7257259492E+00
-2.7210903515E+00   -2.7164704943E+00   -2.7118662978E+00   -2.7072776823E+00
-2.7027045689E+00   -2.6981468793E+00   -2.6936045354E+00   -2.6890774599E+00
-2.6845655760E+00   -2.6800688074E+00   -2.6755870781E+00   -2.6711203129E+00
-2.6666684369E+00   -2.6622313759E+00   -2.6578090560E+00   -2.6534014039E+00
-2.6490083466E+00   -2.6446298119E+00   -2.6402657279E+00   -2.6359160230E+00
-2.6315806265E+00   -2.6272594677E+00   -2.6229524767E+00   -2.6186595839E+00
-2.6143807202E+00   -2.6101158170E+00   -2.6058648060E+00   -2.6016276194E+00
-2.5974041900E+00   -2.5931944508E+00   -2.5889983354E+00   -2.5848157777E+00
-2.5806467122E+00   -2.5764910737E+00   -2.5723487974E+00   -2.5682198190E+00
-2.5641040745E+00   -2.5600015004E+00   -2.5559120337E+00   -2.5518356115E+00
-2.5477721715E+00   -2.5437216520E+00   -2.5396839912E+00   -2.5356591282E+00
-2.5316470020E+00   -2.5276475525E+00   -2.5236607196E+00   -2.5196864436E+00
-2.5157246654E+00   -2.5117753261E+00   -2.5078383672E+00   -2.5039137305E+00
-2.5000013584E+00   -2.4961011934E+00   -2.4922131785E+00   -2.4883372570E+00
-2.4844733725E+00   -2.4806214692E+00   -2.4767814912E+00   -2.4729533833E+00
-2.4691370907E+00   -2.4653325586E+00   -2.4615397328E+00   -2.4577585593E+00
-2.4539889845E+00   -2.4502309552E+00   -2.4464844184E+00   -2.4427493214E+00
-2.4390256119E+00   -2.4353132379E+00   -2.4316121478E+00   -2.4279222901E+00
-2.4242436139E+00   -2.4205760683E+00   -2.4169196029E+00   -2.4132741677E+00
-2.4096397127E+00   -2.4060161884E+00   -2.4024035456E+00   -2.3988017353E+00
-2.3952107089E+00   -2.3916304181E+00   -2.3880608147E+00   -2.3845018510E+00
-2.3809534795E+00   -2.3774156529E+00   -2.3738883244E+00   -2.3703714472E+00
-2.3668649751E+00   -2.3633688618E+00   -2.3598830615E+00   -2.3564075288E+00