<PP_INFO>
Generated using Fritz-Haber code                                                
Author: Nicola Marzari Generation date: 11 Oct 2008
Info: FHI Troullier-Martins input
    1        The Pseudo was generated with a Scalar-Relativistic Calculation
nl pn  l   occ               Rcut            Rcut US             E pseu
s   0  0  2.00      0.00000000000      0.00000000000      0.00000000000
</PP_INFO>


<PP_HEADER>
   0                   Version Number
  He                   Element
   NC                  Norm - Conserving pseudopotential
    F                  Nonlinear Core Correction
SLA  PW   PBE  PBE     PBE  Exchange-Correlation functional
    2.00000000000      Z valence
    0.00000000000      Total energy
  0.0000000  0.0000000 Suggested cutoff for wfc and rho
   -1                  Max angular momentum component
  415                  Number of points in mesh
    1    0             Number of Wavefunctions, Number of Projectors
 Wavefunctions         nl  l   occ
                       s   0  2.00
</PP_HEADER>


<PP_MESH>
  <PP_R>
  3.12500000000E-03  3.20218750000E-03  3.28128153125E-03  3.36232918507E-03
  3.44537871594E-03  3.53047957023E-03  3.61768241561E-03  3.70703917128E-03
  3.79860303881E-03  3.89242853387E-03  3.98857151865E-03  4.08708923516E-03
  4.18804033927E-03  4.29148493565E-03  4.39748461356E-03  4.50610248352E-03
  4.61740321486E-03  4.73145307427E-03  4.84831996520E-03  4.96807346834E-03
  5.09078488301E-03  5.21652726962E-03  5.34537549318E-03  5.47740626786E-03
  5.61269820268E-03  5.75133184828E-03  5.89338974494E-03  6.03895647164E-03
  6.18811869649E-03  6.34096522829E-03  6.49758706943E-03  6.65807747004E-03
  6.82253198355E-03  6.99104852355E-03  7.16372742208E-03  7.34067148940E-03
  7.52198607519E-03  7.70777913125E-03  7.89816127579E-03  8.09324585930E-03
  8.29314903203E-03  8.49798981312E-03  8.70789016150E-03  8.92297504849E-03
  9.14337253219E-03  9.36921383374E-03  9.60063341543E-03  9.83776906079E-03
  1.00807619566E-02  1.03297567769E-02  1.05849017693E-02  1.08463488430E-02
  1.11142536594E-02  1.13887757248E-02  1.16700784852E-02  1.19583294238E-02
  1.22537001606E-02  1.25563665545E-02  1.28665088084E-02  1.31843115760E-02
  1.35099640719E-02  1.38436601845E-02  1.41855985911E-02  1.45359828763E-02
  1.48950216533E-02  1.52629286882E-02  1.56399230267E-02  1.60262291255E-02
  1.64220769849E-02  1.68277022864E-02  1.72433465329E-02  1.76692571923E-02
  1.81056878449E-02  1.85528983347E-02  1.90111549236E-02  1.94807304502E-02
  1.99619044923E-02  2.04549635333E-02  2.09602011325E-02  2.14779181005E-02
  2.20084226776E-02  2.25520307177E-02  2.31090658764E-02  2.36798598036E-02
  2.42647523407E-02  2.48640917236E-02  2.54782347891E-02  2.61075471884E-02
  2.67524036040E-02  2.74131879730E-02  2.80902937159E-02  2.87841239707E-02
  2.94950918328E-02  3.02236206011E-02  3.09701440299E-02  3.17351065874E-02
  3.25189637201E-02  3.33221821240E-02  3.41452400225E-02  3.49886274511E-02
  3.58528465491E-02  3.67384118589E-02  3.76458506318E-02  3.85757031424E-02
  3.95285230100E-02  4.05048775283E-02  4.15053480033E-02  4.25305300990E-02
  4.35810341924E-02  4.46574857370E-02  4.57605256347E-02  4.68908106178E-02
  4.80490136401E-02  4.92358242770E-02  5.04519491367E-02  5.16981122803E-02
  5.29750556537E-02  5.42835395283E-02  5.56243429547E-02  5.69982642256E-02
  5.84061213520E-02  5.98487525494E-02  6.13270167374E-02  6.28417940508E-02
  6.43939863638E-02  6.59845178270E-02  6.76143354174E-02  6.92844095022E-02
  7.09957344169E-02  7.27493290570E-02  7.45462374847E-02  7.63875295505E-02
  7.82743015304E-02  8.02076767782E-02  8.21888063947E-02  8.42188699126E-02
  8.62990759995E-02  8.84306631766E-02  9.06149005571E-02  9.28530886009E-02
  9.51465598893E-02  9.74966799186E-02  9.99048479126E-02  1.02372497656E-01
  1.04901098348E-01  1.07492155477E-01  1.10147211718E-01  1.12867847847E-01
  1.15655683689E-01  1.18512379076E-01  1.21439634839E-01  1.24439193820E-01
  1.27512841907E-01  1.30662409102E-01  1.33889770607E-01  1.37196847941E-01
  1.40585610085E-01  1.44058074654E-01  1.47616309098E-01  1.51262431933E-01
  1.54998614002E-01  1.58827079767E-01  1.62750108638E-01  1.66770036321E-01
  1.70889256218E-01  1.75110220847E-01  1.79435443302E-01  1.83867498751E-01
  1.88409025970E-01  1.93062728912E-01  1.97831378316E-01  2.02717813360E-01
  2.07724943350E-01  2.12855749451E-01  2.18113286463E-01  2.23500684638E-01
  2.29021151549E-01  2.34677973992E-01  2.40474519950E-01  2.46414240592E-01
  2.52500672335E-01  2.58737438942E-01  2.65128253684E-01  2.71676921550E-01
  2.78387341512E-01  2.85263508847E-01  2.92309517516E-01  2.99529562598E-01
  3.06927942794E-01  3.14509062981E-01  3.22277436837E-01  3.30237689527E-01
  3.38394560458E-01  3.46752906102E-01  3.55317702882E-01  3.64094050144E-01
  3.73087173182E-01  3.82302426360E-01  3.91745296291E-01  4.01421405109E-01
  4.11336513815E-01  4.21496525707E-01  4.31907489892E-01  4.42575604892E-01
  4.53507222333E-01  4.64708850724E-01  4.76187159337E-01  4.87948982173E-01
  5.00001322032E-01  5.12351354687E-01  5.25006433147E-01  5.37974092046E-01
  5.51262052120E-01  5.64878224807E-01  5.78830716960E-01  5.93127835669E-01
  6.07778093210E-01  6.22790212112E-01  6.38173130351E-01  6.53936006671E-01
  6.70088226036E-01  6.86639405219E-01  7.03599398528E-01  7.20978303671E-01
  7.38786467772E-01  7.57034493526E-01  7.75733245516E-01  7.94893856680E-01
  8.14527734940E-01  8.34646569993E-01  8.55262340272E-01  8.76387320077E-01
  8.98034086883E-01  9.20215528829E-01  9.42944852391E-01  9.66235590245E-01
  9.90101609324E-01  1.01455711907E+00  1.03961667992E+00  1.06529521191E+00
  1.09160800364E+00  1.11857072133E+00  1.14619941815E+00  1.17451054378E+00
  1.20352095421E+00  1.23324792178E+00  1.26370914545E+00  1.29492276134E+00
  1.32690735354E+00  1.35968196518E+00  1.39326610972E+00  1.42767978263E+00
  1.46294347326E+00  1.49907817705E+00  1.53610540802E+00  1.57404721160E+00
  1.61292617772E+00  1.65276545431E+00  1.69358876104E+00  1.73542040343E+00
  1.77828528740E+00  1.82220893400E+00  1.86721749467E+00  1.91333776679E+00
  1.96059720963E+00  2.00902396070E+00  2.05864685253E+00  2.10949542979E+00
  2.16159996691E+00  2.21499148609E+00  2.26970177579E+00  2.32576340966E+00
  2.38320976588E+00  2.44207504709E+00  2.50239430076E+00  2.56420343998E+00
  2.62753926495E+00  2.69243948480E+00  2.75894274007E+00  2.82708862575E+00
  2.89691771481E+00  2.96847158236E+00  3.04179283045E+00  3.11692511336E+00
  3.19391316366E+00  3.27280281880E+00  3.35364104843E+00  3.43647598232E+00
  3.52135693908E+00  3.60833445548E+00  3.69746031653E+00  3.78878758635E+00
  3.88237063973E+00  3.97826519453E+00  4.07652834484E+00  4.17721859496E+00
  4.28039589425E+00  4.38612167284E+00  4.49445887816E+00  4.60547201245E+00
  4.71922717116E+00  4.83579208228E+00  4.95523614672E+00  5.07763047954E+00
  5.20304795238E+00  5.33156323681E+00  5.46325284876E+00  5.59819519412E+00
  5.73647061542E+00  5.87816143962E+00  6.02335202718E+00  6.17212882225E+00
  6.32458040416E+00  6.48079754014E+00  6.64087323938E+00  6.80490280839E+00
  6.97298390776E+00  7.14521661028E+00  7.32170346056E+00  7.50254953603E+00
  7.68786250957E+00  7.87775271356E+00  8.07233320558E+00  8.27171983576E+00
  8.47603131570E+00  8.68538928920E+00  8.89991840465E+00  9.11974638924E+00
  9.34500412505E+00  9.57582572694E+00  9.81234862240E+00  1.00547136334E+01
  1.03030650601E+01  1.05575507671E+01  1.08183222710E+01  1.10855348311E+01
  1.13593475415E+01  1.16399234257E+01  1.19274295344E+01  1.22220370439E+01
  1.25239213588E+01  1.28332622164E+01  1.31502437932E+01  1.34750548148E+01
  1.38078886688E+01  1.41489435189E+01  1.44984224238E+01  1.48565334577E+01
  1.52234898341E+01  1.55995100330E+01  1.59848179308E+01  1.63796429337E+01
  1.67842201141E+01  1.71987903510E+01  1.76236004726E+01  1.80589034043E+01
  1.85049583184E+01  1.89620307889E+01  1.94303929493E+01  1.99103236552E+01
  2.04021086495E+01  2.09060407331E+01  2.14224199392E+01  2.19515537117E+01
  2.24937570884E+01  2.30493528885E+01  2.36186719048E+01  2.42020531009E+01
  2.47998438125E+01  2.54123999546E+01  2.60400862335E+01  2.66832763635E+01
  2.73423532897E+01  2.80177094159E+01  2.87097468385E+01  2.94188775854E+01
  3.01455238618E+01  3.08901183012E+01  3.16531042232E+01  3.24349358975E+01
  3.32360788142E+01  3.40570099609E+01  3.48982181069E+01  3.57602040942E+01
  3.66434811353E+01  3.75485751193E+01  3.84760249248E+01  3.94263827404E+01
  4.04002143941E+01  4.13980996896E+01  4.24206327520E+01  4.34684223810E+01
  4.45420924138E+01  4.56422820964E+01  4.67696464642E+01  4.79248567318E+01
  4.91086006931E+01  5.03215831302E+01  5.15645262335E+01  5.28381700315E+01
  5.41432728313E+01  5.54806116702E+01  5.68509827785E+01  5.82552020531E+01
  5.96941055438E+01  6.11685499507E+01  6.26794131345E+01  6.42275946389E+01
  6.58140162265E+01  6.74396224273E+01  6.91053811013E+01  7.08122840145E+01
  7.25613474296E+01  7.43536127112E+01  7.61901469451E+01
  </PP_R>
  <PP_RAB>
  7.62496463235E-05  7.81330125877E-05  8.00628979987E-05  8.20404515792E-05
  8.40668507332E-05  8.61433019463E-05  8.82710415044E-05  9.04513362296E-05
  9.26854842344E-05  9.49748156950E-05  9.73206936427E-05  9.97245147757E-05
  1.02187710291E-04  1.04711746735E-04  1.07298126879E-04  1.09948390613E-04
  1.12664115861E-04  1.15446919523E-04  1.18298458435E-04  1.21220430359E-04
  1.24214574988E-04  1.27282674991E-04  1.30426557063E-04  1.33648093022E-04
  1.36949200920E-04  1.40331846183E-04  1.43798042783E-04  1.47349854440E-04
  1.50989395845E-04  1.54718833922E-04  1.58540389120E-04  1.62456336731E-04
  1.66469008249E-04  1.70580792752E-04  1.74794138333E-04  1.79111553550E-04
  1.83535608923E-04  1.88068938463E-04  1.92714241243E-04  1.97474283002E-04
  2.02351897792E-04  2.07349989668E-04  2.12471534412E-04  2.17719581312E-04
  2.23097254971E-04  2.28607757169E-04  2.34254368771E-04  2.40040451679E-04
  2.45969450836E-04  2.52044896271E-04  2.58270405209E-04  2.64649684218E-04
  2.71186531418E-04  2.77884838744E-04  2.84748594261E-04  2.91781884539E-04
  2.98988897088E-04  3.06373922846E-04  3.13941358740E-04  3.21695710301E-04
  3.29641594345E-04  3.37783741726E-04  3.46127000146E-04  3.54676337050E-04
  3.63436842575E-04  3.72413732587E-04  3.81612351781E-04  3.91038176870E-04
  4.00696819839E-04  4.10594031289E-04  4.20735703862E-04  4.31127875747E-04
  4.41776734278E-04  4.52688619615E-04  4.63870028520E-04  4.75327618224E-04
  4.87068210394E-04  4.99098795191E-04  5.11426535432E-04  5.24058770857E-04
  5.37003022497E-04  5.50266997153E-04  5.63858591983E-04  5.77785899205E-04
  5.92057210915E-04  6.06681024025E-04  6.21666045318E-04  6.37021196638E-04
  6.52755620194E-04  6.68878684013E-04  6.85399987508E-04  7.02329367200E-04
  7.19676902570E-04  7.37452922063E-04  7.55668009238E-04  7.74333009066E-04
  7.93459034390E-04  8.13057472540E-04  8.33139992111E-04  8.53718549917E-04
  8.74805398099E-04  8.96413091433E-04  9.18554494791E-04  9.41242790812E-04
  9.64491487745E-04  9.88314427493E-04  1.01272579385E-03  1.03774012096E-03
  1.06337230195E-03  1.08963759781E-03  1.11655164647E-03  1.14413047214E-03
  1.17239049480E-03  1.20134854002E-03  1.23102184896E-03  1.26142808863E-03
  1.29258536242E-03  1.32451222087E-03  1.35722767273E-03  1.39075119624E-03
  1.42510275079E-03  1.46030278874E-03  1.49637226762E-03  1.53333266263E-03
  1.57120597939E-03  1.61001476709E-03  1.64978213183E-03  1.69053175049E-03
  1.73228788473E-03  1.77507539548E-03  1.81891975775E-03  1.86384707576E-03
  1.90988409853E-03  1.95705823577E-03  2.00539757419E-03  2.05493089427E-03
  2.10568768736E-03  2.15769817324E-03  2.21099331812E-03  2.26560485308E-03
  2.32156529295E-03  2.37890795568E-03  2.43766698219E-03  2.49787735665E-03
  2.55957492736E-03  2.62279642806E-03  2.68757949984E-03  2.75396271348E-03
  2.82198559251E-03  2.89168863664E-03  2.96311334597E-03  3.03630224561E-03
  3.11129891108E-03  3.18814799418E-03  3.26689524964E-03  3.34758756230E-03
  3.43027297509E-03  3.51500071758E-03  3.60182123530E-03  3.69078621981E-03
  3.78194863944E-03  3.87536277084E-03  3.97108423128E-03  4.06917001179E-03
  4.16967851108E-03  4.27266957030E-03  4.37820450869E-03  4.48634616006E-03
  4.59715891021E-03  4.71070873529E-03  4.82706324105E-03  4.94629170311E-03
  5.06846510817E-03  5.19365619635E-03  5.32193950440E-03  5.45339141015E-03
  5.58809017798E-03  5.72611600538E-03  5.86755107071E-03  6.01247958216E-03
  6.16098782784E-03  6.31316422719E-03  6.46909938360E-03  6.62888613837E-03
  6.79261962599E-03  6.96039733075E-03  7.13231914482E-03  7.30848742770E-03
  7.48900706717E-03  7.67398554172E-03  7.86353298460E-03  8.05776224932E-03
  8.25678897688E-03  8.46073166461E-03  8.66971173673E-03  8.88385361662E-03
  9.10328480096E-03  9.32813593554E-03  9.55854089315E-03  9.79463685321E-03
  1.00365643835E-02  1.02844675238E-02  1.05384938716E-02  1.07987946702E-02
  1.10655248986E-02  1.13388433636E-02  1.16189127946E-02  1.19058999407E-02
  1.21999756692E-02  1.25013150682E-02  1.28100975504E-02  1.31265069599E-02
  1.34507316818E-02  1.37829647544E-02  1.41234039838E-02  1.44722520622E-02
  1.48297166881E-02  1.51960106903E-02  1.55713521544E-02  1.59559645526E-02
  1.63500768771E-02  1.67539237759E-02  1.71677456932E-02  1.75917890118E-02
  1.80263062004E-02  1.84715559635E-02  1.89278033958E-02  1.93953201397E-02
  1.98743845472E-02  2.03652818455E-02  2.08683043071E-02  2.13837514235E-02
  2.19119300836E-02  2.24531547567E-02  2.30077476792E-02  2.35760390468E-02
  2.41583672113E-02  2.47550788814E-02  2.53665293298E-02  2.59930826042E-02
  2.66351117446E-02  2.72929990047E-02  2.79671360801E-02  2.86579243412E-02
  2.93657750725E-02  3.00911097168E-02  3.08343601268E-02  3.15959688219E-02
  3.23763892518E-02  3.31760860663E-02  3.39955353922E-02  3.48352251163E-02
  3.56956551767E-02  3.65773378596E-02  3.74807981047E-02  3.84065738179E-02
  3.93552161912E-02  4.03272900311E-02  4.13233740949E-02  4.23440614350E-02
  4.33899597525E-02  4.44616917584E-02  4.55598955448E-02  4.66852249648E-02
  4.78383500214E-02  4.90199572669E-02  5.02307502114E-02  5.14714497416E-02
  5.27427945503E-02  5.40455415756E-02  5.53804664526E-02  5.67483639739E-02
  5.81500485641E-02  5.95863547636E-02  6.10581377263E-02  6.25662737281E-02
  6.41116606892E-02  6.56952187082E-02  6.73178906103E-02  6.89806425084E-02
  7.06844643784E-02  7.24303706485E-02  7.42194008035E-02  7.60526200034E-02
  7.79311197175E-02  7.98560183745E-02  8.18284620283E-02  8.38496250404E-02
  8.59207107789E-02  8.80429523352E-02  9.02176132578E-02  9.24459883053E-02
  9.47294042165E-02  9.70692205006E-02  9.94668302470E-02  1.01923660954E-01
  1.04441175380E-01  1.07020872412E-01  1.09664287960E-01  1.12372995873E-01
  1.15148608871E-01  1.17992779510E-01  1.20907201164E-01  1.23893609032E-01
  1.26953781176E-01  1.30089539571E-01  1.33302751198E-01  1.36595329153E-01
  1.39969233783E-01  1.43426473857E-01  1.46969107761E-01  1.50599244723E-01
  1.54319046068E-01  1.58130726506E-01  1.62036555450E-01  1.66038858370E-01
  1.70140018172E-01  1.74342476621E-01  1.78648735793E-01  1.83061359567E-01
  1.87582975148E-01  1.92216274635E-01  1.96964016618E-01  2.01829027829E-01
  2.06814204816E-01  2.11922515675E-01  2.17157001812E-01  2.22520779757E-01
  2.28017043017E-01  2.33649063979E-01  2.39420195860E-01  2.45333874697E-01
  2.51393621402E-01  2.57603043851E-01  2.63965839034E-01  2.70485795258E-01
  2.77166794401E-01  2.84012814223E-01  2.91027930734E-01  2.98216320623E-01
  3.05582263743E-01  3.13130145657E-01  3.20864460255E-01  3.28789812423E-01
  3.36910920790E-01  3.45232620534E-01  3.53759866261E-01  3.62497734957E-01
  3.71451429011E-01  3.80626279307E-01  3.90027748406E-01  3.99661433792E-01
  4.09533071207E-01  4.19648538065E-01  4.30013856956E-01  4.40635199222E-01
  4.51518888643E-01  4.62671405193E-01  4.74099388901E-01  4.85809643807E-01
  4.97809142009E-01  5.10105027816E-01  5.22704622003E-01  5.35615426167E-01
  5.48845127193E-01  5.62401601835E-01  5.76292921400E-01  5.90527356559E-01
  6.05113382266E-01  6.20059682808E-01  6.35375156973E-01  6.51068923350E-01
  6.67150325757E-01  6.83628938803E-01  7.00514573592E-01  7.17817283559E-01
  7.35547370463E-01  7.53715390514E-01  7.72332160660E-01  7.91408765028E-01
  8.10956561524E-01  8.30987188594E-01  8.51512572152E-01  8.72544932684E-01
  8.94096792521E-01  9.16180983297E-01  9.38810653584E-01  9.61999276728E-01
  9.85760658863E-01  1.01010894714E+00  1.03505863813E+00  1.06062458649E+00
  1.08682201378E+00  1.11366651752E+00  1.14117408050E+00  1.16936108029E+00
  1.19824429897E+00  1.22784093316E+00  1.25816860421E+00  1.28924536873E+00
  1.32108972934E+00  1.35372064565E+00  1.38715754560E+00  1.42142033698E+00
  1.45652941930E+00  1.49250569596E+00  1.52937058665E+00  1.56714604014E+00
  1.60585454733E+00  1.64551915465E+00  1.68616347777E+00  1.72781171567E+00
  1.77048866505E+00  1.81421973507E+00  1.85903096253E+00
  </PP_RAB>
</PP_MESH>


<PP_LOCAL>
 -1.59443250854E+01 -1.59443240086E+01 -1.59443227245E+01 -1.59443212265E+01
 -1.59443195074E+01 -1.59443175598E+01 -1.59443153755E+01 -1.59443129462E+01
 -1.59443102628E+01 -1.59443073158E+01 -1.59443040952E+01 -1.59443005902E+01
 -1.59442967896E+01 -1.59442926815E+01 -1.59442882533E+01 -1.59442834918E+01
 -1.59442783829E+01 -1.59442729119E+01 -1.59442670631E+01 -1.59442608203E+01
 -1.59442541660E+01 -1.59442470821E+01 -1.59442395493E+01 -1.59442315474E+01
 -1.59442230551E+01 -1.59442140501E+01 -1.59442045086E+01 -1.59441944058E+01
 -1.59441837157E+01 -1.59441724106E+01 -1.59441604618E+01 -1.59441478387E+01
 -1.59441345093E+01 -1.59441204400E+01 -1.59441055954E+01 -1.59440899381E+01
 -1.59440734291E+01 -1.59440560273E+01 -1.59440376892E+01 -1.59440183694E+01
 -1.59439980201E+01 -1.59439765909E+01 -1.59439540289E+01 -1.59439302787E+01
 -1.59439052816E+01 -1.59438789764E+01 -1.59438512984E+01 -1.59438221797E+01
 -1.59437915490E+01 -1.59437593313E+01 -1.59437254477E+01 -1.59436898152E+01
 -1.59436523468E+01 -1.59436129509E+01 -1.59435715310E+01 -1.59435279861E+01
 -1.59434822095E+01 -1.59434340894E+01 -1.59433835081E+01 -1.59433303419E+01
 -1.59432744606E+01 -1.59432157273E+01 -1.59431539984E+01 -1.59430891223E+01
 -1.59430209399E+01 -1.59429492839E+01 -1.59428739781E+01 -1.59427948373E+01
 -1.59427116667E+01 -1.59426242612E+01 -1.59425324050E+01 -1.59424358712E+01
 -1.59423344208E+01 -1.59422278023E+01 -1.59421157511E+01 -1.59419979885E+01
 -1.59418742211E+01 -1.59417441401E+01 -1.59416074199E+01 -1.59414637181E+01
 -1.59413126736E+01 -1.59411539061E+01 -1.59409870150E+01 -1.59408115779E+01
 -1.59406271497E+01 -1.59404332612E+01 -1.59402294175E+01 -1.59400150969E+01
 -1.59397897490E+01 -1.59395527930E+01 -1.59393036163E+01 -1.59390415719E+01
 -1.59387659773E+01 -1.59384761113E+01 -1.59381712125E+01 -1.59378504764E+01
 -1.59375130527E+01 -1.59371580430E+01 -1.59367844970E+01 -1.59363914098E+01
 -1.59359777184E+01 -1.59355422977E+01 -1.59350839568E+01 -1.59346014344E+01
 -1.59340933948E+01 -1.59335584223E+01 -1.59329950163E+01 -1.59324015857E+01
 -1.59317764425E+01 -1.59311177955E+01 -1.59304237429E+01 -1.59296922653E+01
 -1.59289212169E+01 -1.59281083168E+01 -1.59272511398E+01 -1.59263471058E+01
 -1.59253934688E+01 -1.59243873053E+01 -1.59233255005E+01 -1.59222047354E+01
 -1.59210214709E+01 -1.59197719319E+01 -1.59184520897E+01 -1.59170576424E+01
 -1.59155839949E+01 -1.59140262362E+01 -1.59123791150E+01 -1.59106370139E+01
 -1.59087939204E+01 -1.59068433968E+01 -1.59047785460E+01 -1.59025919761E+01
 -1.59002757604E+01 -1.58978213956E+01 -1.58952197549E+01 -1.58924610384E+01
 -1.58895347190E+01 -1.58864294830E+01 -1.58831331668E+01 -1.58796326873E+01
 -1.58759139673E+01 -1.58719618537E+01 -1.58677600299E+01 -1.58632909197E+01
 -1.58585355842E+01 -1.58534736096E+01 -1.58480829859E+01 -1.58423399754E+01
 -1.58362189708E+01 -1.58296923413E+01 -1.58227302667E+01 -1.58153005580E+01
 -1.58073684634E+01 -1.57988964599E+01 -1.57898440276E+01 -1.57801674070E+01
 -1.57698193386E+01 -1.57587487814E+01 -1.57469006120E+01 -1.57342153010E+01
 -1.57206285667E+01 -1.57060710046E+01 -1.56904676917E+01 -1.56737377642E+01
 -1.56557939688E+01 -1.56365421856E+01 -1.56158809226E+01 -1.55937007820E+01
 -1.55698838976E+01 -1.55443033432E+01 -1.55168225153E+01 -1.54872944881E+01
 -1.54555613461E+01 -1.54214534954E+01 -1.53847889587E+01 -1.53453726587E+01
 -1.53029956971E+01 -1.52574346371E+01 -1.52084508000E+01 -1.51557895879E+01
 -1.50991798483E+01 -1.50383332968E+01 -1.49729440218E+01 -1.49026880932E+01
 -1.48272233052E+01 -1.47461890874E+01 -1.46592066203E+01 -1.45658792006E+01
 -1.44657929040E+01 -1.43585176007E+01 -1.42436083848E+01 -1.41206074827E+01
 -1.39890467146E+01 -1.38484505849E+01 -1.36983400848E+01 -1.35382372912E+01
 -1.33676708506E+01 -1.31861824328E+01 -1.29933342410E+01 -1.27887176538E+01
 -1.25719630686E+01 -1.23427509989E+01 -1.21008244574E+01 -1.18460026310E+01
 -1.15781958174E+01 -1.12974215524E+01 -1.10038218018E+01 -1.06976810316E+01
 -1.03794448955E+01 -1.00497391934E+01 -9.70938865830E+00 -9.35943501742E+00
 -9.00115365569E+00 -8.63606807391E+00 -8.26596119444E+00 -7.89288241710E+00
 -7.51914917303E+00 -7.14734156703E+00 -6.78028854160E+00 -6.42104384095E+00
 -6.07284990372E+00 -5.73908767224E+00 -5.42321018181E+00 -5.12865770114E+00
 -4.85875216984E+00 -4.61656878291E+00 -4.40478292046E+00 -4.22549139782E+00
 -4.08000850864E+00 -3.96863998532E+00 -3.89044243216E+00 -3.84298286748E+00
 -3.82212391638E+00 -3.82187646269E+00 -3.83438513675E+00 -3.85014525162E+00
 -3.85859546488E+00 -3.84929161250E+00 -3.81394710145E+00 -3.74972762411E+00
 -3.66431846535E+00 -3.57599204388E+00 -3.48979412889E+00 -3.40567398155E+00
 -3.32358151805E+00 -3.24346786186E+00 -3.16528531459E+00 -3.08898732760E+00
 -3.01452847429E+00 -2.94186442304E+00 -2.87095191084E+00 -2.80174871752E+00
 -2.73421364059E+00 -2.66830647077E+00 -2.60398796796E+00 -2.54121983796E+00
 -2.47996470963E+00 -2.42018611265E+00 -2.36184845579E+00 -2.30491700575E+00
 -2.24935786645E+00 -2.19513795886E+00 -2.14222500133E+00 -2.09058749032E+00
 -2.04019468168E+00 -1.99101657235E+00 -1.94302388245E+00 -1.89618803791E+00
 -1.85048115342E+00 -1.80587601583E+00 -1.76234606795E+00 -1.71986539275E+00
 -1.67840869791E+00 -1.63795130079E+00 -1.59846911368E+00 -1.55993862953E+00
 -1.52233690790E+00 -1.48564156134E+00 -1.44983074201E+00 -1.41488312873E+00
 -1.38077791425E+00 -1.34749479287E+00 -1.31501394834E+00 -1.28331604210E+00
 -1.25238220172E+00 -1.22219400968E+00 -1.19273349242E+00 -1.16398310961E+00
 -1.13592574374E+00 -1.10854468990E+00 -1.08182364585E+00 -1.05574670230E+00
 -1.03029833346E+00 -1.00546338778E+00 -9.81227078935E-01 -9.57574977003E-01
 -9.34492999906E-01 -9.11967405002E-01 -8.89984780913E-01 -8.68532039537E-01
 -8.47596408253E-01 -8.27165422322E-01 -8.07226917460E-01 -7.87769022602E-01
 -7.68780152827E-01 -7.50249002466E-01 -7.32164538369E-01 -7.14515993333E-01
 -6.97292859699E-01 -6.80484883086E-01 -6.64082056296E-01 -6.48074613346E-01
 -6.32453023662E-01 -6.17207986398E-01 -6.02330424903E-01 -5.87811481314E-01
 -5.73642511285E-01 -5.59815078838E-01 -5.46320951340E-01 -5.33152094603E-01
 -5.20300668101E-01 -5.07759020300E-01 -4.95519684103E-01 -4.83575372404E-01
 -4.71918973752E-01 -4.60543548114E-01 -4.49442322742E-01 -4.38608688145E-01
 -4.28036194150E-01 -4.17718546062E-01 -4.07649600919E-01 -3.97823363833E-01
 -3.88233984417E-01 -3.78875753311E-01 -3.69743098771E-01 -3.60830583362E-01
 -3.52132900714E-01 -3.43644872367E-01 -3.35361444683E-01 -3.27277685843E-01
 -3.19388782905E-01 -3.11690038943E-01 -3.04176870248E-01 -2.96844803599E-01
 -2.89689473601E-01 -2.82706620085E-01 -2.75892085572E-01 -2.69241812795E-01
 -2.62751842291E-01 -2.56418310033E-01 -2.50237445138E-01 -2.44205567618E-01
 -2.38319086189E-01 -2.32574496135E-01 -2.26968377217E-01 -2.21497391644E-01
 -2.16158282076E-01 -2.10947869695E-01 -2.05863052303E-01 -2.00900802482E-01
 -1.96058165787E-01 -1.91332258990E-01 -1.86720268361E-01 -1.82219447996E-01
 -1.77827118177E-01 -1.73540663781E-01 -1.69357532723E-01 -1.65275234433E-01
 -1.61291338375E-01 -1.57403472602E-01 -1.53609322340E-01 -1.49906628613E-01
 -1.46293186897E-01 -1.42766845805E-01 -1.39325505812E-01 -1.35967117997E-01
 -1.32689682831E-01 -1.29491248981E-01 -1.26369912151E-01 -1.23323813947E-01
 -1.20351140770E-01 -1.17450122738E-01 -1.14619032632E-01 -1.11856184866E-01
 -1.09159934484E-01 -1.06528676182E-01 -1.03960843352E-01 -1.01454907145E-01
 -9.90093755687E-02 -9.66227925917E-02 -9.42937372808E-02 -9.20208229539E-02
 -8.98026963539E-02 -8.76380368439E-02 -8.55255556201E-02 -8.34639949449E-02
 -8.14521273982E-02 -7.94887551461E-02 -7.75727092281E-02 -7.57028488613E-02
 -7.38780607605E-02 -7.20972584761E-02 -7.03593817470E-02 -6.86633958690E-02
 -6.70082910793E-02 -6.53930819551E-02 -6.38168068264E-02 -6.22785272045E-02
 -6.07773272221E-02 -5.93123130888E-02 -5.78826125586E-02 -5.64873744107E-02
 -5.51257679425E-02 -5.37969824754E-02 -5.25002268716E-02
</PP_LOCAL>


<PP_NONLOCAL>
  <PP_DIJ>
    0                  Number of nonzero Dij
  </PP_DIJ>
</PP_NONLOCAL>


<PP_PSWFC>
s     0  2.00          Wavefunction
  9.44026712882E-03  9.67344172690E-03  9.91237573755E-03  1.01572114183E-02
  1.04080942506E-02  1.06651729571E-02  1.09286006651E-02  1.11985340998E-02
  1.14751338811E-02  1.17585645911E-02  1.20489948714E-02  1.23465975226E-02
  1.26515496068E-02  1.29640325522E-02  1.32842322607E-02  1.36123392173E-02
  1.39485486032E-02  1.42930604106E-02  1.46460795613E-02  1.50078160273E-02
  1.53784849548E-02  1.57583067911E-02  1.61475074147E-02  1.65463182679E-02
  1.69549764936E-02  1.73737250747E-02  1.78028129770E-02  1.82424952955E-02
  1.86930334043E-02  1.91546951100E-02  1.96277548092E-02  2.01124936485E-02
  2.06091996900E-02  2.11181680797E-02  2.16397012197E-02  2.21741089454E-02
  2.27217087059E-02  2.32828257494E-02  2.38577933126E-02  2.44469528143E-02
  2.50506540544E-02  2.56692554161E-02  2.63031240746E-02  2.69526362089E-02
  2.76181772194E-02  2.83001419508E-02  2.89989349191E-02  2.97149705446E-02
  3.04486733898E-02  3.12004784027E-02  3.19708311662E-02  3.27601881515E-02
  3.35690169793E-02  3.43977966847E-02  3.52470179895E-02  3.61171835794E-02
  3.70088083878E-02  3.79224198855E-02  3.88585583765E-02  3.98177773002E-02
  4.08006435401E-02  4.18077377382E-02  4.28396546171E-02  4.38970033073E-02
  4.49804076819E-02  4.60905066981E-02  4.72279547445E-02  4.83934219959E-02
  4.95875947748E-02  5.08111759193E-02  5.20648851575E-02  5.33494594897E-02
  5.46656535766E-02  5.60142401336E-02  5.73960103331E-02  5.88117742124E-02
  6.02623610883E-02  6.17486199779E-02  6.32714200262E-02  6.48316509387E-02
  6.64302234210E-02  6.80680696234E-02  6.97461435907E-02  7.14654217176E-02
  7.32269032088E-02  7.50316105428E-02  7.68805899409E-02  7.87749118385E-02
  8.07156713597E-02  8.27039887952E-02  8.47410100805E-02  8.68279072764E-02
  8.89658790487E-02  9.11561511482E-02  9.33999768888E-02  9.56986376223E-02
  9.80534432108E-02  1.00465732493E-01  1.02936873744E-01  1.05468265128E-01
  1.08061335142E-01  1.10717543045E-01  1.13438379278E-01  1.16225365865E-01
  1.19080056801E-01  1.22004038411E-01  1.24998929700E-01  1.28066382660E-01
  1.31208082564E-01  1.34425748213E-01  1.37721132163E-01  1.41096020891E-01
  1.44552234939E-01  1.48091628987E-01  1.51716091887E-01  1.55427546629E-01
  1.59227950244E-01  1.63119293630E-01  1.67103601303E-01  1.71182931058E-01
  1.75359373537E-01  1.79635051687E-01  1.84012120117E-01  1.88492764312E-01
  1.93079199734E-01  1.97773670761E-01  2.02578449472E-01  2.07495834266E-01
  2.12528148282E-01  2.17677737628E-01  2.22946969386E-01  2.28338229378E-01
  2.33853919684E-01  2.39496455874E-01  2.45268263948E-01  2.51171776955E-01
  2.57209431257E-01  2.63383662435E-01  2.69696900773E-01  2.76151566333E-01
  2.82750063543E-01  2.89494775305E-01  2.96388056555E-01  3.03432227258E-01
  3.10629564784E-01  3.17982295624E-01  3.25492586413E-01  3.33162534184E-01
  3.40994155838E-01  3.48989376744E-01  3.57150018436E-01  3.65477785334E-01
  3.73974250440E-01  3.82640839934E-01  3.91478816621E-01  4.00489262139E-01
  4.09673057885E-01  4.19030864568E-01  4.28563100326E-01  4.38269917349E-01
  4.48151176905E-01  4.58206422740E-01  4.68434852752E-01  4.78835288895E-01
  4.89406145252E-01  5.00145394220E-01  5.11050530768E-01  5.22118534747E-01
  5.33345831213E-01  5.44728248790E-01  5.56260976074E-01  5.67938516127E-01
  5.79754639147E-01  5.91702333408E-01  6.03773754626E-01  6.15960173954E-01
  6.28251924834E-01  6.40638349043E-01  6.53107742289E-01  6.65647299836E-01
  6.78243062682E-01  6.90879864956E-01  7.03541283276E-01  7.16209588942E-01
  7.28865703960E-01  7.41489162046E-01  7.54058075893E-01  7.66549112136E-01
  7.78937475628E-01  7.91196904782E-01  8.03299679898E-01  8.15216646557E-01
  8.26917256289E-01  8.38369626837E-01  8.49540624443E-01  8.60395970604E-01
  8.70900375737E-01  8.81017702146E-01  8.90711158462E-01  8.99943527513E-01
  9.08677429185E-01  9.16875619285E-01  9.24501324805E-01  9.31518615079E-01
  9.37892807367E-01  9.43590904136E-01  9.48582057972E-01  9.52838058421E-01
  9.56333833360E-01  9.59047955615E-01  9.60963143541E-01  9.62066742331E-01
  9.62351170797E-01  9.61814316565E-01  9.60459860974E-01  9.58297513702E-01
  9.55343136341E-01  9.51618733901E-01  9.47152293786E-01  9.41977453161E-01
  9.36132978156E-01  9.29662042022E-01  9.22611294506E-01  9.15029721576E-01
  9.06967303457E-01  8.98473490223E-01  8.89595528322E-01  8.80376689021E-01
  8.70854471213E-01  8.61058876761E-01  8.51010886086E-01  8.40721293814E-01
  8.30190095351E-01  8.19406638787E-01  8.08350760928E-01  7.96995093447E-01
  7.85308627741E-01  7.73261427047E-01  7.60830019600E-01  7.48002429603E-01
  7.34780914474E-01  7.21179734324E-01  7.07218070674E-01  6.92915285885E-01