<UPF version="2.0.1"><PP_INFO>This pseudopotential file has been produced using the code
ONCVPSP (Optimized Norm-Conservinng Vanderbilt PSeudopotential)
scalar-relativistic version 3.3.0 08/16/2017 by D. R. Hamann
The code is available through a link at URL www.mat-simresearch.com.
Documentation with the package provides a full discription of the
input data below.
While it is not required under the terms of the GNU GPL, it is
suggested that you cite D. R. Hamann, Phys. Rev. B 88, 085117 (2013)
in any publication using these pseudopotentials.<PP_INPUTFILE>
# ATOM AND REFERENCE CONFIGURATION
# atsym z nc nv iexc psfile
Ar 18.00 3 2 -116133 upf
#
# n l f energy (Ha)
1 0 2.00
2 0 2.00
2 1 6.00
3 0 2.00
3 1 6.00
#
# PSEUDOPOTENTIAL AND OPTIMIZATION
# lmax
2
#
# l, rc, ep, ncon, nbas, qcut
0 1.55000 -0.88937 4 8 8.20000
1 1.55000 -0.37606 4 8 8.20000
2 1.55000 0.10000 4 8 8.20000
#
# LOCAL POTENTIAL
# lloc, lpopt, rc(5), dvloc0
4 5 1.50000 0.00000
#
# VANDERBILT-KLEINMAN-BYLANDER PROJECTORs
# l, nproj, debl
0 2 1.50000
1 2 1.50000
2 2 1.00000
#
# MODEL CORE CHARGE
# icmod, fcfact, rcfact
3 7.00000 1.25000
#
# LOG DERIVATIVE ANALYSIS
# epsh1, epsh2, depsh
-12.00 12.00 0.02
#
# OUTPUT GRID
# rlmax, drl
4.00 0.01
#
# TEST CONFIGURATIONS
# ncnf
0
# nvcnf
# n l f</PP_INPUTFILE></PP_INFO><PP_HEADER generated="Generated using ONCVPSP code by D. R. Hamann" author="anonymous" date="180301" comment="" element="Ar" pseudo_type="NC" relativistic="scalar" is_ultrasoft="F" is_paw="F" is_coulomb="F" has_so="F" has_wfc="F" has_gipaw="F" core_correction="T" functional="PBESOL" z_valence="    8.00" total_psenergy="  -4.22720456455E+01" rho_cutoff="   9.37000000000E+00" l_max="2" l_local="-1" mesh_size="   938" number_of_wfc="2" number_of_proj="6"/><PP_MESH><PP_R type="real" size=" 938" columns="8">
0.0000 0.0100 0.0200 0.0300 0.0400 0.0500 0.0600 0.0700
0.0800 0.0900 0.1000 0.1100 0.1200 0.1300 0.1400 0.1500
0.1600 0.1700 0.1800 0.1900 0.2000 0.2100 0.2200 0.2300
0.2400 0.2500 0.2600 0.2700 0.2800 0.2900 0.3000 0.3100
0.3200 0.3300 0.3400 0.3500 0.3600 0.3700 0.3800 0.3900
0.4000 0.4100 0.4200 0.4300 0.4400 0.4500 0.4600 0.4700
0.4800 0.4900 0.5000 0.5100 0.5200 0.5300 0.5400 0.5500
0.5600 0.5700 0.5800 0.5900 0.6000 0.6100 0.6200 0.6300
0.6400 0.6500 0.6600 0.6700 0.6800 0.6900 0.7000 0.7100
0.7200 0.7300 0.7400 0.7500 0.7600 0.7700 0.7800 0.7900
0.8000 0.8100 0.8200 0.8300 0.8400 0.8500 0.8600 0.8700
0.8800 0.8900 0.9000 0.9100 0.9200 0.9300 0.9400 0.9500
0.9600 0.9700 0.9800 0.9900 1.0000 1.0100 1.0200 1.0300
1.0400 1.0500 1.0600 1.0700 1.0800 1.0900 1.1000 1.1100
1.1200 1.1300 1.1400 1.1500 1.1600 1.1700 1.1800 1.1900
1.2000 1.2100 1.2200 1.2300 1.2400 1.2500 1.2600 1.2700
1.2800 1.2900 1.3000 1.3100 1.3200 1.3300 1.3400 1.3500
1.3600 1.3700 1.3800 1.3900 1.4000 1.4100 1.4200 1.4300
1.4400 1.4500 1.4600 1.4700 1.4800 1.4900 1.5000 1.5100
1.5200 1.5300 1.5400 1.5500 1.5600 1.5700 1.5800 1.5900
1.6000 1.6100 1.6200 1.6300 1.6400 1.6500 1.6600 1.6700
1.6800 1.6900 1.7000 1.7100 1.7200 1.7300 1.7400 1.7500
1.7600 1.7700 1.7800 1.7900 1.8000 1.8100 1.8200 1.8300
1.8400 1.8500 1.8600 1.8700 1.8800 1.8900 1.9000 1.9100
1.9200 1.9300 1.9400 1.9500 1.9600 1.9700 1.9800 1.9900
2.0000 2.0100 2.0200 2.0300 2.0400 2.0500 2.0600 2.0700
2.0800 2.0900 2.1000 2.1100 2.1200 2.1300 2.1400 2.1500
2.1600 2.1700 2.1800 2.1900 2.2000 2.2100 2.2200 2.2300
2.2400 2.2500 2.2600 2.2700 2.2800 2.2900 2.3000 2.3100
2.3200 2.3300 2.3400 2.3500 2.3600 2.3700 2.3800 2.3900
2.4000 2.4100 2.4200 2.4300 2.4400 2.4500 2.4600 2.4700
2.4800 2.4900 2.5000 2.5100 2.5200 2.5300 2.5400 2.5500
2.5600 2.5700 2.5800 2.5900 2.6000 2.6100 2.6200 2.6300
2.6400 2.6500 2.6600 2.6700 2.6800 2.6900 2.7000 2.7100
2.7200 2.7300 2.7400 2.7500 2.7600 2.7700 2.7800 2.7900
2.8000 2.8100 2.8200 2.8300 2.8400 2.8500 2.8600 2.8700
2.8800 2.8900 2.9000 2.9100 2.9200 2.9300 2.9400 2.9500
2.9600 2.9700 2.9800 2.9900 3.0000 3.0100 3.0200 3.0300
3.0400 3.0500 3.0600 3.0700 3.0800 3.0900 3.1000 3.1100
3.1200 3.1300 3.1400 3.1500 3.1600 3.1700 3.1800 3.1900
3.2000 3.2100 3.2200 3.2300 3.2400 3.2500 3.2600 3.2700
3.2800 3.2900 3.3000 3.3100 3.3200 3.3300 3.3400 3.3500
3.3600 3.3700 3.3800 3.3900 3.4000 3.4100 3.4200 3.4300
3.4400 3.4500 3.4600 3.4700 3.4800 3.4900 3.5000 3.5100
3.5200 3.5300 3.5400 3.5500 3.5600 3.5700 3.5800 3.5900
3.6000 3.6100 3.6200 3.6300 3.6400 3.6500 3.6600 3.6700
3.6800 3.6900 3.7000 3.7100 3.7200 3.7300 3.7400 3.7500
3.7600 3.7700 3.7800 3.7900 3.8000 3.8100 3.8200 3.8300
3.8400 3.8500 3.8600 3.8700 3.8800 3.8900 3.9000 3.9100
3.9200 3.9300 3.9400 3.9500 3.9600 3.9700 3.9800 3.9900
4.0000 4.0100 4.0200 4.0300 4.0400 4.0500 4.0600 4.0700
4.0800 4.0900 4.1000 4.1100 4.1200 4.1300 4.1400 4.1500
4.1600 4.1700 4.1800 4.1900 4.2000 4.2100 4.2200 4.2300
4.2400 4.2500 4.2600 4.2700 4.2800 4.2900 4.3000 4.3100
4.3200 4.3300 4.3400 4.3500 4.3600 4.3700 4.3800 4.3900
4.4000 4.4100 4.4200 4.4300 4.4400 4.4500 4.4600 4.4700
4.4800 4.4900 4.5000 4.5100 4.5200 4.5300 4.5400 4.5500
4.5600 4.5700 4.5800 4.5900 4.6000 4.6100 4.6200 4.6300
4.6400 4.6500 4.6600 4.6700 4.6800 4.6900 4.7000 4.7100
4.7200 4.7300 4.7400 4.7500 4.7600 4.7700 4.7800 4.7900
4.8000 4.8100 4.8200 4.8300 4.8400 4.8500 4.8600 4.8700
4.8800 4.8900 4.9000 4.9100 4.9200 4.9300 4.9400 4.9500
4.9600 4.9700 4.9800 4.9900 5.0000 5.0100 5.0200 5.0300
5.0400 5.0500 5.0600 5.0700 5.0800 5.0900 5.1000 5.1100
5.1200 5.1300 5.1400 5.1500 5.1600 5.1700 5.1800 5.1900
5.2000 5.2100 5.2200 5.2300 5.2400 5.2500 5.2600 5.2700
5.2800 5.2900 5.3000 5.3100 5.3200 5.3300 5.3400 5.3500
5.3600 5.3700 5.3800 5.3900 5.4000 5.4100 5.4200 5.4300
5.4400 5.4500 5.4600 5.4700 5.4800 5.4900 5.5000 5.5100
5.5200 5.5300 5.5400 5.5500 5.5600 5.5700 5.5800 5.5900
5.6000 5.6100 5.6200 5.6300 5.6400 5.6500 5.6600 5.6700
5.6800 5.6900 5.7000 5.7100 5.7200 5.7300 5.7400 5.7500
5.7600 5.7700 5.7800 5.7900 5.8000 5.8100 5.8200 5.8300
5.8400 5.8500 5.8600 5.8700 5.8800 5.8900 5.9000 5.9100
5.9200 5.9300 5.9400 5.9500 5.9600 5.9700 5.9800 5.9900
6.0000 6.0100 6.0200 6.0300 6.0400 6.0500 6.0600 6.0700
6.0800 6.0900 6.1000 6.1100 6.1200 6.1300 6.1400 6.1500
6.1600 6.1700 6.1800 6.1900 6.2000 6.2100 6.2200 6.2300
6.2400 6.2500 6.2600 6.2700 6.2800 6.2900 6.3000 6.3100
6.3200 6.3300 6.3400 6.3500 6.3600 6.3700 6.3800 6.3900
6.4000 6.4100 6.4200 6.4300 6.4400 6.4500 6.4600 6.4700
6.4800 6.4900 6.5000 6.5100 6.5200 6.5300 6.5400 6.5500
6.5600 6.5700 6.5800 6.5900 6.6000 6.6100 6.6200 6.6300
6.6400 6.6500 6.6600 6.6700 6.6800 6.6900 6.7000 6.7100
6.7200 6.7300 6.7400 6.7500 6.7600 6.7700 6.7800 6.7900
6.8000 6.8100 6.8200 6.8300 6.8400 6.8500 6.8600 6.8700
6.8800 6.8900 6.9000 6.9100 6.9200 6.9300 6.9400 6.9500
6.9600 6.9700 6.9800 6.9900 7.0000 7.0100 7.0200 7.0300
7.0400 7.0500 7.0600 7.0700 7.0800 7.0900 7.1000 7.1100
7.1200 7.1300 7.1400 7.1500 7.1600 7.1700 7.1800 7.1900
7.2000 7.2100 7.2200 7.2300 7.2400 7.2500 7.2600 7.2700
7.2800 7.2900 7.3000 7.3100 7.3200 7.3300 7.3400 7.3500
7.3600 7.3700 7.3800 7.3900 7.4000 7.4100 7.4200 7.4300
7.4400 7.4500 7.4600 7.4700 7.4800 7.4900 7.5000 7.5100
7.5200 7.5300 7.5400 7.5500 7.5600 7.5700 7.5800 7.5900
7.6000 7.6100 7.6200 7.6300 7.6400 7.6500 7.6600 7.6700
7.6800 7.6900 7.7000 7.7100 7.7200 7.7300 7.7400 7.7500
7.7600 7.7700 7.7800 7.7900 7.8000 7.8100 7.8200 7.8300
7.8400 7.8500 7.8600 7.8700 7.8800 7.8900 7.9000 7.9100
7.9200 7.9300 7.9400 7.9500 7.9600 7.9700 7.9800 7.9900
8.0000 8.0100 8.0200 8.0300 8.0400 8.0500 8.0600 8.0700
8.0800 8.0900 8.1000 8.1100 8.1200 8.1300 8.1400 8.1500
8.1600 8.1700 8.1800 8.1900 8.2000 8.2100 8.2200 8.2300
8.2400 8.2500 8.2600 8.2700 8.2800 8.2900 8.3000 8.3100
8.3200 8.3300 8.3400 8.3500 8.3600 8.3700 8.3800 8.3900
8.4000 8.4100 8.4200 8.4300 8.4400 8.4500 8.4600 8.4700
8.4800 8.4900 8.5000 8.5100 8.5200 8.5300 8.5400 8.5500
8.5600 8.5700 8.5800 8.5900 8.6000 8.6100 8.6200 8.6300
8.6400 8.6500 8.6600 8.6700 8.6800 8.6900 8.7000 8.7100
8.7200 8.7300 8.7400 8.7500 8.7600 8.7700 8.7800 8.7900
8.8000 8.8100 8.8200 8.8300 8.8400 8.8500 8.8600 8.8700
8.8800 8.8900 8.9000 8.9100 8.9200 8.9300 8.9400 8.9500
8.9600 8.9700 8.9800 8.9900 9.0000 9.0100 9.0200 9.0300
9.0400 9.0500 9.0600 9.0700 9.0800 9.0900 9.1000 9.1100
9.1200 9.1300 9.1400 9.1500 9.1600 9.1700 9.1800 9.1900
9.2000 9.2100 9.2200 9.2300 9.2400 9.2500 9.2600 9.2700
9.2800 9.2900 9.3000 9.3100 9.3200 9.3300 9.3400 9.3500
9.3600 9.3700</PP_R><PP_RAB type="real" size=" 938" columns="8">
0.0100 0.0100 0.0100 0.0100 0.0100 0.0100 0.0100 0.0100
0.0100 0.0100 0.0100 0.0100 0.0100 0.0100 0.0100 0.0100
0.0100 0.0100 0.0100 0.0100 0.0100 0.0100 0.0100 0.0100
0.0100 0.0100 0.0100 0.0100 0.0100 0.0100 0.0100 0.0100
0.0100 0.0100 0.0100 0.0100 0.0100 0.0100 0.0100 0.0100
0.0100 0.0100 0.0100 0.0100 0.0100 0.0100 0.0100 0.0100
0.0100 0.0100 0.0100 0.0100 0.0100 0.0100 0.0100 0.0100
0.0100 0.0100 0.0100 0.0100 0.0100 0.0100 0.0100 0.0100
0.0100 0.0100 0.0100 0.0100 0.0100 0.0100 0.0100 0.0100
0.0100 0.0100 0.0100 0.0100 0.0100 0.0100 0.0100 0.0100
0.0100 0.0100 0.0100 0.0100 0.0100 0.0100 0.0100 0.0100
0.0100 0.0100 0.0100 0.0100 0.0100 0.0100 0.0100 0.0100
0.0100 0.0100 0.0100 0.0100 0.0100 0.0100 0.0100 0.0100
0.0100 0.0100 0.0100 0.0100 0.0100 0.0100 0.0100 0.0100
0.0100 0.0100 0.0100 0.0100 0.0100 0.0100 0.0100 0.0100
0.0100 0.0100 0.0100 0.0100 0.0100 0.0100 0.0100 0.0100
0.0100 0.0100 0.0100 0.0100 0.0100 0.0100 0.0100 0.0100
0.0100 0.0100 0.0100 0.0100 0.0100 0.0100 0.0100 0.0100
0.0100 0.0100 0.0100 0.0100 0.0100 0.0100 0.0100 0.0100
0.0100 0.0100 0.0100 0.0100 0.0100 0.0100 0.0100 0.0100
0.0100 0.0100 0.0100 0.0100 0.0100 0.0100 0.0100 0.0100
0.0100 0.0100 0.0100 0.0100 0.0100 0.0100 0.0100 0.0100
0.0100 0.0100 0.0100 0.0100 0.0100 0.0100 0.0100 0.0100
0.0100 0.0100 0.0100 0.0100 0.0100 0.0100 0.0100 0.0100
0.0100 0.0100 0.0100 0.0100 0.0100 0.0100 0.0100 0.0100
0.0100 0.0100 0.0100 0.0100 0.0100 0.0100 0.0100 0.0100
0.0100 0.0100 0.0100 0.0100 0.0100 0.0100 0.0100 0.0100
0.0100 0.0100 0.0100 0.0100 0.0100 0.0100 0.0100 0.0100
0.0100 0.0100 0.0100 0.0100 0.0100 0.0100 0.0100 0.0100
0.0100 0.0100 0.0100 0.0100 0.0100 0.0100 0.0100 0.0100
0.0100 0.0100 0.0100 0.0100 0.0100 0.0100 0.0100 0.0100
0.0100 0.0100 0.0100 0.0100 0.0100 0.0100 0.0100 0.0100
0.0100 0.0100 0.0100 0.0100 0.0100 0.0100 0.0100 0.0100
0.0100 0.0100 0.0100 0.0100 0.0100 0.0100 0.0100 0.0100
0.0100 0.0100 0.0100 0.0100 0.0100 0.0100 0.0100 0.0100
0.0100 0.0100 0.0100 0.0100 0.0100 0.0100 0.0100 0.0100
0.0100 0.0100 0.0100 0.0100 0.0100 0.0100 0.0100 0.0100
0.0100 0.0100 0.0100 0.0100 0.0100 0.0100 0.0100 0.0100
0.0100 0.0100 0.0100 0.0100 0.0100 0.0100 0.0100 0.0100
0.0100 0.0100 0.0100 0.0100 0.0100 0.0100 0.0100 0.0100
0.0100 0.0100 0.0100 0.0100 0.0100 0.0100 0.0100 0.0100
0.0100 0.0100 0.0100 0.0100 0.0100 0.0100 0.0100 0.0100
0.0100 0.0100 0.0100 0.0100 0.0100 0.0100 0.0100 0.0100
0.0100 0.0100 0.0100 0.0100 0.0100 0.0100 0.0100 0.0100
0.0100 0.0100 0.0100 0.0100 0.0100 0.0100 0.0100 0.0100
0.0100 0.0100 0.0100 0.0100 0.0100 0.0100 0.0100 0.0100
0.0100 0.0100 0.0100 0.0100 0.0100 0.0100 0.0100 0.0100
0.0100 0.0100 0.0100 0.0100 0.0100 0.0100 0.0100 0.0100
0.0100 0.0100 0.0100 0.0100 0.0100 0.0100 0.0100 0.0100
0.0100 0.0100 0.0100 0.0100 0.0100 0.0100 0.0100 0.0100
0.0100 0.0100 0.0100 0.0100 0.0100 0.0100 0.0100 0.0100
0.0100 0.0100 0.0100 0.0100 0.0100 0.0100 0.0100 0.0100
0.0100 0.0100 0.0100 0.0100 0.0100 0.0100 0.0100 0.0100
0.0100 0.0100 0.0100 0.0100 0.0100 0.0100 0.0100 0.0100
0.0100 0.0100 0.0100 0.0100 0.0100 0.0100 0.0100 0.0100
0.0100 0.0100 0.0100 0.0100 0.0100 0.0100 0.0100 0.0100
0.0100 0.0100 0.0100 0.0100 0.0100 0.0100 0.0100 0.0100
0.0100 0.0100 0.0100 0.0100 0.0100 0.0100 0.0100 0.0100
0.0100 0.0100 0.0100 0.0100 0.0100 0.0100 0.0100 0.0100
0.0100 0.0100 0.0100 0.0100 0.0100 0.0100 0.0100 0.0100
0.0100 0.0100 0.0100 0.0100 0.0100 0.0100 0.0100 0.0100
0.0100 0.0100 0.0100 0.0100 0.0100 0.0100 0.0100 0.0100
0.0100 0.0100 0.0100 0.0100 0.0100 0.0100 0.0100 0.0100
0.0100 0.0100 0.0100 0.0100 0.0100 0.0100 0.0100 0.0100
0.0100 0.0100 0.0100 0.0100 0.0100 0.0100 0.0100 0.0100
0.0100 0.0100 0.0100 0.0100 0.0100 0.0100 0.0100 0.0100
0.0100 0.0100 0.0100 0.0100 0.0100 0.0100 0.0100 0.0100
0.0100 0.0100 0.0100 0.0100 0.0100 0.0100 0.0100 0.0100
0.0100 0.0100 0.0100 0.0100 0.0100 0.0100 0.0100 0.0100
0.0100 0.0100 0.0100 0.0100 0.0100 0.0100 0.0100 0.0100
0.0100 0.0100 0.0100 0.0100 0.0100 0.0100 0.0100 0.0100
0.0100 0.0100 0.0100 0.0100 0.0100 0.0100 0.0100 0.0100
0.0100 0.0100 0.0100 0.0100 0.0100 0.0100 0.0100 0.0100
0.0100 0.0100 0.0100 0.0100 0.0100 0.0100 0.0100 0.0100
0.0100 0.0100 0.0100 0.0100 0.0100 0.0100 0.0100 0.0100
0.0100 0.0100 0.0100 0.0100 0.0100 0.0100 0.0100 0.0100
0.0100 0.0100 0.0100 0.0100 0.0100 0.0100 0.0100 0.0100
0.0100 0.0100 0.0100 0.0100 0.0100 0.0100 0.0100 0.0100
0.0100 0.0100 0.0100 0.0100 0.0100 0.0100 0.0100 0.0100
0.0100 0.0100 0.0100 0.0100 0.0100 0.0100 0.0100 0.0100
0.0100 0.0100 0.0100 0.0100 0.0100 0.0100 0.0100 0.0100
0.0100 0.0100 0.0100 0.0100 0.0100 0.0100 0.0100 0.0100
0.0100 0.0100 0.0100 0.0100 0.0100 0.0100 0.0100 0.0100
0.0100 0.0100 0.0100 0.0100 0.0100 0.0100 0.0100 0.0100
0.0100 0.0100 0.0100 0.0100 0.0100 0.0100 0.0100 0.0100
0.0100 0.0100 0.0100 0.0100 0.0100 0.0100 0.0100 0.0100
0.0100 0.0100 0.0100 0.0100 0.0100 0.0100 0.0100 0.0100
0.0100 0.0100 0.0100 0.0100 0.0100 0.0100 0.0100 0.0100
0.0100 0.0100 0.0100 0.0100 0.0100 0.0100 0.0100 0.0100
0.0100 0.0100 0.0100 0.0100 0.0100 0.0100 0.0100 0.0100
0.0100 0.0100 0.0100 0.0100 0.0100 0.0100 0.0100 0.0100
0.0100 0.0100 0.0100 0.0100 0.0100 0.0100 0.0100 0.0100
0.0100 0.0100 0.0100 0.0100 0.0100 0.0100 0.0100 0.0100
0.0100 0.0100 0.0100 0.0100 0.0100 0.0100 0.0100 0.0100
0.0100 0.0100 0.0100 0.0100 0.0100 0.0100 0.0100 0.0100
0.0100 0.0100 0.0100 0.0100 0.0100 0.0100 0.0100 0.0100
0.0100 0.0100 0.0100 0.0100 0.0100 0.0100 0.0100 0.0100
0.0100 0.0100 0.0100 0.0100 0.0100 0.0100 0.0100 0.0100
0.0100 0.0100 0.0100 0.0100 0.0100 0.0100 0.0100 0.0100
0.0100 0.0100 0.0100 0.0100 0.0100 0.0100 0.0100 0.0100
0.0100 0.0100 0.0100 0.0100 0.0100 0.0100 0.0100 0.0100
0.0100 0.0100 0.0100 0.0100 0.0100 0.0100 0.0100 0.0100
0.0100 0.0100 0.0100 0.0100 0.0100 0.0100 0.0100 0.0100
0.0100 0.0100 0.0100 0.0100 0.0100 0.0100 0.0100 0.0100
0.0100 0.0100 0.0100 0.0100 0.0100 0.0100 0.0100 0.0100
0.0100 0.0100 0.0100 0.0100 0.0100 0.0100 0.0100 0.0100
0.0100 0.0100 0.0100 0.0100 0.0100 0.0100 0.0100 0.0100
0.0100 0.0100 0.0100 0.0100 0.0100 0.0100 0.0100 0.0100
0.0100 0.0100 0.0100 0.0100 0.0100 0.0100 0.0100 0.0100
0.0100 0.0100 0.0100 0.0100 0.0100 0.0100 0.0100 0.0100
0.0100 0.0100 0.0100 0.0100 0.0100 0.0100 0.0100 0.0100
0.0100 0.0100 0.0100 0.0100 0.0100 0.0100 0.0100 0.0100
0.0100 0.0100 0.0100 0.0100 0.0100 0.0100 0.0100 0.0100
0.0100 0.0100 0.0100 0.0100 0.0100 0.0100 0.0100 0.0100
0.0100 0.0100 0.0100 0.0100 0.0100 0.0100 0.0100 0.0100
0.0100 0.0100 0.0100 0.0100 0.0100 0.0100 0.0100 0.0100
0.0100 0.0100 0.0100 0.0100 0.0100 0.0100 0.0100 0.0100
0.0100 0.0100</PP_RAB></PP_MESH><PP_LOCAL type="real" size=" 938" columns="4">
-2.1437746028E+01 -2.1437101226E+01 -2.1435167134E+01 -2.1431944719E+01
-2.1427435580E+01 -2.1421641936E+01 -2.1414566599E+01 -2.1406212956E+01
-2.1396584931E+01 -2.1385686951E+01 -2.1373523907E+01 -2.1360101105E+01
-2.1345424222E+01 -2.1329499252E+01 -2.1312332456E+01 -2.1293930304E+01
-2.1274299421E+01 -2.1253446531E+01 -2.1231378399E+01 -2.1208101774E+01
-2.1183623337E+01 -2.1157949645E+01 -2.1131087077E+01 -2.1103041789E+01
-2.1073819661E+01 -2.1043426255E+01 -2.1011866772E+01 -2.0979146013E+01
-2.0945268340E+01 -2.0910237646E+01 -2.0874057321E+01 -2.0836730228E+01
-2.0798258678E+01 -2.0758644404E+01 -2.0717888549E+01 -2.0675991643E+01
-2.0632953595E+01 -2.0588773678E+01 -2.0543450523E+01 -2.0496982109E+01
-2.0449365761E+01 -2.0400598147E+01 -2.0350675280E+01 -2.0299592518E+01
-2.0247344569E+01 -2.0193925500E+01 -2.0139328746E+01 -2.0083547124E+01
-2.0026572847E+01 -1.9968397550E+01 -1.9909012307E+01 -1.9848407667E+01
-1.9786573685E+01 -1.9723499964E+01 -1.9659175704E+01 -1.9593589757E+01
-1.9526730696E+01 -1.9458586890E+01 -1.9389146599E+01 -1.9318398074E+01
-1.9246329689E+01 -1.9172930076E+01 -1.9098188300E+01 -1.9022094045E+01
-1.8944637835E+01 -1.8865811283E+01 -1.8785607368E+01 -1.8704020741E+01
-1.8621048064E+01 -1.8536688364E+01 -1.8450943409E+01 -1.8363818090E+01
-1.8275320804E+01 -1.8185463811E+01 -1.8094263568E+01 -1.8001741005E+01
-1.7907921734E+01 -1.7812836181E+01 -1.7716519609E+01 -1.7619012044E+01
-1.7520358075E+01 -1.7420606553E+01 -1.7319810171E+01 -1.7218024961E+01
-1.7115309715E+01 -1.7011725350E+01 -1.6907334256E+01 -1.6802199647E+01
-1.6696384946E+01 -1.6589953212E+01 -1.6482966660E+01 -1.6375486251E+01
-1.6267571386E+01 -1.6159279690E+01 -1.6050666890E+01 -1.5941786769E+01
-1.5832691203E+01 -1.5723430237E+01 -1.5614052221E+01 -1.5504603956E+01
-1.5395130871E+01 -1.5285677196E+01 -1.5176286129E+01 -1.5066999992E+01
-1.4957860374E+01 -1.4848908249E+01 -1.4740184068E+01 -1.4631727838E+01
-1.4523579168E+01 -1.4415777299E+01 -1.4308361110E+01 -1.4201369107E+01
-1.4094839397E+01 -1.3988809641E+01 -1.3883316999E+01 -1.3778398066E+01
-1.3674088791E+01 -1.3570424400E+01 -1.3467439304E+01 -1.3365167014E+01
-1.3263640043E+01 -1.3162889825E+01 -1.3062946614E+01 -1.2963839408E+01
-1.2865595862E+01 -1.2768242212E+01 -1.2671803206E+01 -1.2576302035E+01
-1.2481760280E+01 -1.2388197855E+01 -1.2295632969E+01 -1.2204082082E+01
-1.2113559878E+01 -1.2024079236E+01 -1.1935651213E+01 -1.1848285030E+01
-1.1761988061E+01 -1.1676765826E+01 -1.1592621995E+01 -1.1509558380E+01
-1.1427574951E+01 -1.1346669830E+01 -1.1266839306E+01 -1.1188077844E+01
-1.1110378090E+01 -1.1033730884E+01 -1.0958125269E+01 -1.0883548502E+01
-1.0809986046E+01 -1.0737421650E+01 -1.0665837287E+01 -1.0595212997E+01
-1.0525527423E+01 -1.0456758424E+01 -1.0388884136E+01 -1.0321883921E+01
-1.0255739844E+01 -1.0190436927E+01 -1.0125962639E+01 -1.0062305494E+01
-9.9994519521E+00 -9.9373866370E+00 -9.8760930540E+00 -9.8155544676E+00
-9.7557558571E+00 -9.6966831522E+00 -9.6383225060E+00 -9.5806604934E+00
-9.5236837930E+00 -9.4673793993E+00 -9.4117348896E+00 -9.3567382313E+00
-9.3023776871E+00 -9.2486418701E+00 -9.1955197464E+00 -9.1430006106E+00
-9.0910740721E+00 -9.0397300445E+00 -8.9889587333E+00 -8.9387506237E+00
-8.8890964672E+00 -8.8399872693E+00 -8.7914142770E+00 -8.7433689664E+00
-8.6958430302E+00 -8.6488283662E+00 -8.6023170657E+00 -8.5563014022E+00
-8.5107738212E+00 -8.4657269296E+00 -8.4211534866E+00 -8.3770463946E+00
-8.3333986907E+00 -8.2902035396E+00 -8.2474542259E+00 -8.2051441485E+00
-8.1632668144E+00 -8.1218158343E+00 -8.0807849176E+00 -8.0401678693E+00
-7.9999585869E+00 -7.9601510577E+00 -7.9207393569E+00 -7.8817176465E+00
-7.8430801739E+00 -7.8048212719E+00 -7.7669353581E+00 -7.7294169350E+00
-7.6922605911E+00 -7.6554610005E+00 -7.6190129246E+00 -7.5829112124E+00
-7.5471508015E+00 -7.5117267192E+00 -7.4766340831E+00 -7.4418681022E+00
-7.4074240770E+00 -7.3732974008E+00 -7.3394835589E+00 -7.3059781296E+00
-7.2727767835E+00 -7.2398752830E+00 -7.2072694820E+00 -7.1749553244E+00
-7.1429288430E+00 -7.1111861582E+00 -7.0797234758E+00 -7.0485370852E+00
-7.0176233572E+00 -6.9869787411E+00 -6.9565997627E+00 -6.9264830208E+00
-6.8966251848E+00 -6.8670229915E+00 -6.8376732421E+00 -6.8085727990E+00
-6.7797185829E+00 -6.7511075695E+00 -6.7227367871E+00 -6.6946033133E+00
-6.6667042721E+00 -6.6390368322E+00 -6.6115982037E+00 -6.5843856367E+00
-6.5573964187E+00 -6.5306278734E+00 -6.5040773588E+00 -6.4777422663E+00
-6.4516200192E+00 -6.4257080724E+00 -6.4000039115E+00 -6.3745050522E+00
-6.3492090407E+00 -6.3241134530E+00 -6.2992158956E+00 -6.2745140051E+00
-6.2500054492E+00 -6.2256879267E+00 -6.2015591681E+00 -6.1776169360E+00
-6.1538590259E+00 -6.1302832662E+00 -6.1068875186E+00 -6.0836696803E+00
-6.0606276824E+00 -6.0377594951E+00 -6.0150631108E+00 -5.9925365555E+00
-5.9701778846E+00 -5.9479852181E+00 -5.9259567390E+00 -5.9040906501E+00
-5.8823851613E+00 -5.8608384225E+00 -5.8394486261E+00 -5.8182139990E+00
-5.7971328026E+00 -5.7762033664E+00 -5.7554240421E+00 -5.7347933935E+00
-5.7143100490E+00 -5.6939726711E+00 -5.6737798698E+00 -5.6537301322E+00
-5.6338219516E+00 -5.6140538005E+00 -5.5944241156E+00 -5.5749313465E+00
-5.5555739364E+00 -5.5363504377E+00 -5.5172594699E+00 -5.4982996793E+00
-5.4794697493E+00 -5.4607683399E+00 -5.4421941474E+00 -5.4237458855E+00
-5.4054222796E+00 -5.3872220695E+00 -5.3691440100E+00 -5.3511868708E+00
-5.3333494452E+00 -5.3156305403E+00 -5.2980289793E+00 -5.2805436007E+00
-5.2631732575E+00 -5.2459168184E+00 -5.2287731665E+00 -5.2117411998E+00
-5.1948198303E+00 -5.1780079844E+00 -5.1613046022E+00 -5.1447086373E+00
-5.1282190571E+00 -5.1118348417E+00 -5.0955549847E+00 -5.0793784920E+00
-5.0633043824E+00 -5.0473316870E+00 -5.0314594491E+00 -5.0156867240E+00
-5.0000125787E+00 -4.9844360920E+00 -4.9689563540E+00 -4.9535724662E+00
-4.9382835410E+00 -4.9230887020E+00 -4.9079870833E+00 -4.8929778297E+00
-4.8780600965E+00 -4.8632330491E+00 -4.8484958632E+00 -4.8338477242E+00
-4.8192878277E+00 -4.8048153786E+00 -4.7904295916E+00 -4.7761296905E+00
-4.7619149085E+00 -4.7477844880E+00 -4.7337376802E+00 -4.7197737452E+00
-4.7058919518E+00 -4.6920915773E+00 -4.6783719076E+00 -4.6647322369E+00
-4.6511718674E+00 -4.6376901096E+00 -4.6242862820E+00 -4.6109597109E+00
-4.5977097301E+00 -4.5845356815E+00 -4.5714369141E+00 -4.5584127846E+00
-4.5454626569E+00 -4.5325859020E+00 -4.5197818981E+00 -4.5070500306E+00
-4.4943896915E+00 -4.4818002798E+00 -4.4692812011E+00 -4.4568318677E+00
-4.4444516983E+00 -4.4321401183E+00 -4.4198965592E+00 -4.4077204589E+00
-4.3956112615E+00 -4.3835684169E+00 -4.3715913814E+00 -4.3596796170E+00
-4.3478325917E+00 -4.3360497791E+00 -4.3243306585E+00 -4.3126747150E+00
-4.3010814391E+00 -4.2895503267E+00 -4.2780808791E+00 -4.2666726032E+00
-4.2553250108E+00 -4.2440376190E+00 -4.2328099500E+00 -4.2216415311E+00
-4.2105318946E+00 -4.1994805775E+00 -4.1884871219E+00 -4.1775510746E+00
-4.1666719870E+00 -4.1558494153E+00 -4.1450829202E+00 -4.1343720671E+00
-4.1237164257E+00 -4.1131155702E+00 -4.1025690791E+00 -4.0920765355E+00
-4.0816375262E+00 -4.0712516428E+00 -4.0609184807E+00 -4.0506376395E+00
-4.0404087227E+00 -4.0302313381E+00 -4.0201050971E+00 -4.0100296152E+00
-4.0000045117E+00 -3.9900294097E+00 -3.9801039360E+00 -3.9702277212E+00
-3.9604003995E+00 -3.9506216087E+00 -3.9408909902E+00 -3.9312081889E+00
-3.9215728532E+00 -3.9119846349E+00 -3.9024431893E+00 -3.8929481748E+00
-3.8834992535E+00 -3.8740960905E+00 -3.8647383542E+00 -3.8554257161E+00
-3.8461578511E+00 -3.8369344370E+00 -3.8277551548E+00 -3.8186196885E+00
-3.8095277251E+00 -3.8004789546E+00 -3.7914730700E+00 -3.7825097669E+00
-3.7735887442E+00 -3.7647097034E+00 -3.7558723488E+00 -3.7470763876E+00
-3.7383215295E+00 -3.7296074872E+00 -3.7209339758E+00 -3.7123007132E+00
-3.7037074200E+00 -3.6951538191E+00 -3.6866396361E+00 -3.6781645993E+00
-3.6697284392E+00 -3.6613308890E+00 -3.6529716842E+00 -3.6446505627E+00
-3.6363672648E+00 -3.6281215333E+00 -3.6199131131E+00 -3.6117417515E+00
-3.6036071983E+00 -3.5955092051E+00 -3.5874475261E+00 -3.5794219175E+00
-3.5714321378E+00 -3.5634779475E+00 -3.5555591095E+00 -3.5476753885E+00
-3.5398265514E+00 -3.5320123672E+00 -3.5242326070E+00 -3.5164870436E+00
-3.5087754523E+00 -3.5010976098E+00 -3.4934532952E+00 -3.4858422893E+00
-3.4782643748E+00 -3.4707193364E+00 -3.4632069607E+00 -3.4557270359E+00
-3.4482793523E+00 -3.4408637018E+00 -3.4334798782E+00 -3.4261276770E+00
-3.4188068956E+00 -3.4115173329E+00 -3.4042587897E+00 -3.3970310683E+00
-3.3898339729E+00 -3.3826673092E+00 -3.3755308846E+00 -3.3684245081E+00
-3.3613479904E+00 -3.3543011435E+00 -3.3472837814E+00 -3.3402957193E+00
-3.3333367741E+00 -3.3264067642E+00 -3.3195055095E+00 -3.3126328314E+00
-3.3057885527E+00 -3.2989724978E+00 -3.2921844925E+00 -3.2854243639E+00
-3.2786919407E+00 -3.2719870529E+00 -3.2653095320E+00 -3.2586592106E+00
-3.2520359230E+00 -3.2454395046E+00 -3.2388697923E+00 -3.2323266242E+00
-3.2258098398E+00 -3.2193192797E+00 -3.2128547861E+00 -3.2064162021E+00
-3.2000033724E+00 -3.1936161427E+00 -3.1872543600E+00 -3.1809178726E+00
-3.1746065299E+00 -3.1683201825E+00 -3.1620586821E+00 -3.1558218819E+00
-3.1496096359E+00 -3.1434217994E+00 -3.1372582288E+00 -3.1311187816E+00
-3.1250033165E+00 -3.1189116933E+00 -3.1128437728E+00 -3.1067994169E+00
-3.1007784886E+00 -3.0947808520E+00 -3.0888063722E+00 -3.0828549153E+00
-3.0769263485E+00 -3.0710205399E+00 -3.0651373589E+00 -3.0592766756E+00
-3.0534383612E+00 -3.0476222878E+00 -3.0418283287E+00 -3.0360563579E+00
-3.0303062505E+00 -3.0245778825E+00 -3.0188711309E+00 -3.0131858736E+00
-3.0075219892E+00 -3.0018793576E+00 -2.9962578593E+00 -2.9906573759E+00
-2.9850777897E+00 -2.9795189839E+00 -2.9739808427E+00 -2.9684632511E+00
-2.9629660949E+00 -2.9574892608E+00 -2.9520326363E+00 -2.9465961098E+00
-2.9411795704E+00 -2.9357829080E+00 -2.9304060136E+00 -2.9250487786E+00
-2.9197110955E+00 -2.9143928574E+00 -2.9090939582E+00 -2.9038142927E+00
-2.8985537563E+00 -2.8933122453E+00 -2.8880896566E+00 -2.8828858879E+00
-2.8777008377E+00 -2.8725344052E+00 -2.8673864903E+00 -2.8622569936E+00
-2.8571458164E+00 -2.8520528608E+00 -2.8469780295E+00 -2.8419212260E+00
-2.8368823542E+00 -2.8318613192E+00 -2.8268580262E+00 -2.8218723814E+00
-2.8169042916E+00 -2.8119536643E+00 -2.8070204075E+00 -2.8021044300E+00
-2.7972056412E+00 -2.7923239510E+00 -2.7874592701E+00 -2.7826115098E+00
-2.7777805819E+00 -2.7729663989E+00 -2.7681688739E+00 -2.7633879207E+00
-2.7586234534E+00 -2.7538753869E+00 -2.7491436368E+00 -2.7444281190E+00
-2.7397287502E+00 -2.7350454476E+00 -2.7303781288E+00 -2.7257267123E+00
-2.7210911169E+00 -2.7164712620E+00 -2.7118670675E+00 -2.7072784541E+00
-2.7027053426E+00 -2.6981476548E+00 -2.6936053126E+00 -2.6890782388E+00
-2.6845663564E+00 -2.6800695892E+00 -2.6755878613E+00 -2.6711210974E+00
-2.6666692227E+00 -2.6622321628E+00 -2.6578098439E+00 -2.6534021927E+00
-2.6490091363E+00 -2.6446306024E+00 -2.6402665191E+00 -2.6359168149E+00
-2.6315814190E+00 -2.6272602607E+00 -2.6229532702E+00 -2.6186603777E+00
-2.6143815144E+00 -2.6101166113E+00 -2.6058656005E+00 -2.6016284140E+00
-2.5974049846E+00 -2.5931952454E+00 -2.5889991300E+00 -2.5848165722E+00
-2.5806475065E+00 -2.5764918677E+00 -2.5723495911E+00 -2.5682206123E+00
-2.5641048674E+00 -2.5600022929E+00 -2.5559128256E+00 -2.5518364028E+00
-2.5477729623E+00 -2.5437224421E+00 -2.5396847806E+00 -2.5356599168E+00
-2.5316477899E+00 -2.5276483395E+00 -2.5236615056E+00 -2.5196872287E+00
-2.5157254495E+00 -2.5117761092E+00 -2.5078391492E+00 -2.5039145115E+00
-2.5000021383E+00 -2.4961019721E+00 -2.4922139560E+00 -2.4883380333E+00
-2.4844741475E+00 -2.4806222428E+00 -2.4767822635E+00 -2.4729541543E+00
-2.4691378602E+00 -2.4653333267E+00 -2.4615404994E+00 -2.4577593244E+00
-2.4539897481E+00 -2.4502317172E+00 -2.4464851788E+00 -2.4427500802E+00
-2.4390263691E+00 -2.4353139934E+00 -2.4316129016E+00 -2.4279230422E+00
-2.4242443643E+00 -2.4205768169E+00 -2.4169203498E+00 -2.4132749127E+00
-2.4096404559E+00 -2.4060169298E+00 -2.4024042851E+00 -2.3988024730E+00
-2.3952114447E+00 -2.3916311519E+00 -2.3880615466E+00 -2.3845025810E+00
-2.3809542075E+00 -2.3774163789E+00 -2.3738890484E+00 -2.3703721692E+00
-2.3668656950E+00 -2.3633695797E+00 -2.3598837774E+00 -2.3564082425E+00
-2.3529429299E+00 -2.3494877943E+00 -2.3460427912E+00 -2.3426078759E+00
-2.3391830042E+00 -2.3357681321E+00 -2.3323632160E+00 -2.3289682123E+00
-2.3255830778E+00 -2.3222077695E+00 -2.3188422447E+00 -2.3154864610E+00
-2.3121403761E+00 -2.3088039479E+00 -2.3054771349E+00 -2.3021598955E+00
-2.2988521883E+00 -2.2955539725E+00 -2.2922652071E+00 -2.2889858516E+00
-2.2857158658E+00 -2.2824552094E+00 -2.2792038427E+00 -2.2759617259E+00
-2.2727288198E+00 -2.2695050850E+00 -2.2662904826E+00 -2.2630849738E+00
-2.2598885202E+00 -2.2567010834E+00 -2.2535226253E+00 -2.2503531081E+00
-2.2471924939E+00 -2.2440407455E+00 -2.2408978255E+00 -2.2377636969E+00
-2.2346383229E+00 -2.2315216668E+00 -2.2284136922E+00 -2.2253143629E+00
-2.2222236428E+00 -2.2191414962E+00 -2.2160678874E+00 -2.2130027810E+00
-2.2099461418E+00 -2.2068979347E+00 -2.2038581248E+00 -2.2008266776E+00
-2.1978035585E+00 -2.1947887334E+00 -2.1917821680E+00 -2.1887838286E+00
-2.1857936814E+00 -2.1828116928E+00 -2.1798378295E+00 -2.1768720585E+00
-2.1739143466E+00 -2.1709646610E+00 -2.1680229692E+00 -2.1650892387E+00
-2.1621634372E+00 -2.1592455326E+00 -2.1563354931E+00 -2.1534332867E+00
-2.1505388820E+00 -2.1476522475E+00 -2.1447733520E+00 -2.1419021644E+00
-2.1390386538E+00 -2.1361827894E+00 -2.1333345407E+00 -2.1304938772E+00
-2.1276607687E+00 -2.1248351850E+00 -2.1220170963E+00 -2.1192064727E+00
-2.1164032847E+00 -2.1136075027E+00 -2.1108190975E+00 -2.1080380399E+00
-2.1052643008E+00 -2.1024978515E+00 -2.0997386632E+00 -2.0969867074E+00
-2.0942419557E+00 -2.0915043799E+00 -2.0887739517E+00 -2.0860506434E+00
-2.0833344270E+00 -2.0806252749E+00 -2.0779231596E+00 -2.0752280537E+00
-2.0725399299E+00 -2.0698587612E+00 -2.0671845205E+00 -2.0645171812E+00
-2.0618567165E+00 -2.0592030998E+00 -2.0565563048E+00 -2.0539163051E+00
-2.0512830747E+00 -2.0486565876E+00 -2.0460368178E+00 -2.0434237397E+00
-2.0408173275E+00 -2.0382175560E+00 -2.0356243996E+00 -2.0330378333E+00
-2.0304578318E+00 -2.0278843703E+00 -2.0253174239E+00 -2.0227569679E+00
-2.0202029777E+00 -2.0176554289E+00 -2.0151142970E+00 -2.0125795580E+00
-2.0100511877E+00 -2.0075291621E+00 -2.0050134574E+00 -2.0025040498E+00
-2.0000009158E+00 -1.9975040318E+00 -1.9950133745E+00 -1.9925289205E+00
-1.9900506468E+00 -1.9875785304E+00 -1.9851125482E+00 -1.9826526775E+00
-1.9801988956E+00 -1.9777511800E+00 -1.9753095081E+00 -1.9728738576E+00
-1.9704442062E+00 -1.9680205319E+00 -1.9656028126E+00 -1.9631910263E+00
-1.9607851513E+00 -1.9583851658E+00 -1.9559910483E+00 -1.9536027772E+00
-1.9512203312E+00 -1.9488436890E+00 -1.9464728293E+00 -1.9441077312E+00
-1.9417483737E+00 -1.9393947358E+00 -1.9370467968E+00 -1.9347045360E+00