<UPF version="2.0.1"><PP_INFO>This pseudopotential file has been produced using the code
ONCVPSP (Optimized Norm-Conservinng Vanderbilt PSeudopotential)
scalar-relativistic version 3.3.0 08/16/2017 by D. R. Hamann
The code is available through a link at URL www.mat-simresearch.com.
Documentation with the package provides a full discription of the
input data below.
While it is not required under the terms of the GNU GPL, it is
suggested that you cite D. R. Hamann, Phys. Rev. B 88, 085117 (2013)
in any publication using these pseudopotentials.<PP_INPUTFILE>
# ATOM AND REFERENCE CONFIGURATION
# atsym z nc nv iexc psfile
Br 35.00 6 2 -116133 upf
#
# n l f energy (Ha)
1 0 2.00
2 0 2.00
2 1 6.00
3 0 2.00
3 1 6.00
3 2 10.00
4 0 2.00
4 1 5.00
#
# PSEUDOPOTENTIAL AND OPTIMIZATION
# lmax
2
#
# l, rc, ep, ncon, nbas, qcut
0 1.80000 -0.73991 4 9 5.90000
1 1.50000 -0.28868 4 8 7.40000
2 1.90000 0.10000 4 9 7.40000
#
# LOCAL POTENTIAL
# lloc, lpopt, rc(5), dvloc0
4 5 1.50000 0.00000
#
# VANDERBILT-KLEINMAN-BYLANDER PROJECTORs
# l, nproj, debl
0 2 3.20000
1 2 4.00000
2 2 2.50000
#
# MODEL CORE CHARGE
# icmod, fcfact, rcfact
3 8.00000 1.21000
#
# LOG DERIVATIVE ANALYSIS
# epsh1, epsh2, depsh
-12.00 12.00 0.02
#
# OUTPUT GRID
# rlmax, drl
6.00 0.01
#
# TEST CONFIGURATIONS
# ncnf
0
# nvcnf
# n l f</PP_INPUTFILE></PP_INFO><PP_HEADER generated="Generated using ONCVPSP code by D. R. Hamann" author="anonymous" date="180301" comment="" element="Br" pseudo_type="NC" relativistic="scalar" is_ultrasoft="F" is_paw="F" is_coulomb="F" has_so="F" has_wfc="F" has_gipaw="F" core_correction="T" functional="PBESOL" z_valence="    7.00" total_psenergy="  -2.69620400786E+01" rho_cutoff="   1.09700000000E+01" l_max="2" l_local="-1" mesh_size="  1098" number_of_wfc="2" number_of_proj="6"/><PP_MESH><PP_R type="real" size="1098" columns="8">
0.0000 0.0100 0.0200 0.0300 0.0400 0.0500 0.0600 0.0700
0.0800 0.0900 0.1000 0.1100 0.1200 0.1300 0.1400 0.1500
0.1600 0.1700 0.1800 0.1900 0.2000 0.2100 0.2200 0.2300
0.2400 0.2500 0.2600 0.2700 0.2800 0.2900 0.3000 0.3100
0.3200 0.3300 0.3400 0.3500 0.3600 0.3700 0.3800 0.3900
0.4000 0.4100 0.4200 0.4300 0.4400 0.4500 0.4600 0.4700
0.4800 0.4900 0.5000 0.5100 0.5200 0.5300 0.5400 0.5500
0.5600 0.5700 0.5800 0.5900 0.6000 0.6100 0.6200 0.6300
0.6400 0.6500 0.6600 0.6700 0.6800 0.6900 0.7000 0.7100
0.7200 0.7300 0.7400 0.7500 0.7600 0.7700 0.7800 0.7900
0.8000 0.8100 0.8200 0.8300 0.8400 0.8500 0.8600 0.8700
0.8800 0.8900 0.9000 0.9100 0.9200 0.9300 0.9400 0.9500
0.9600 0.9700 0.9800 0.9900 1.0000 1.0100 1.0200 1.0300
1.0400 1.0500 1.0600 1.0700 1.0800 1.0900 1.1000 1.1100
1.1200 1.1300 1.1400 1.1500 1.1600 1.1700 1.1800 1.1900
1.2000 1.2100 1.2200 1.2300 1.2400 1.2500 1.2600 1.2700
1.2800 1.2900 1.3000 1.3100 1.3200 1.3300 1.3400 1.3500
1.3600 1.3700 1.3800 1.3900 1.4000 1.4100 1.4200 1.4300
1.4400 1.4500 1.4600 1.4700 1.4800 1.4900 1.5000 1.5100
1.5200 1.5300 1.5400 1.5500 1.5600 1.5700 1.5800 1.5900
1.6000 1.6100 1.6200 1.6300 1.6400 1.6500 1.6600 1.6700
1.6800 1.6900 1.7000 1.7100 1.7200 1.7300 1.7400 1.7500
1.7600 1.7700 1.7800 1.7900 1.8000 1.8100 1.8200 1.8300
1.8400 1.8500 1.8600 1.8700 1.8800 1.8900 1.9000 1.9100
1.9200 1.9300 1.9400 1.9500 1.9600 1.9700 1.9800 1.9900
2.0000 2.0100 2.0200 2.0300 2.0400 2.0500 2.0600 2.0700
2.0800 2.0900 2.1000 2.1100 2.1200 2.1300 2.1400 2.1500
2.1600 2.1700 2.1800 2.1900 2.2000 2.2100 2.2200 2.2300
2.2400 2.2500 2.2600 2.2700 2.2800 2.2900 2.3000 2.3100
2.3200 2.3300 2.3400 2.3500 2.3600 2.3700 2.3800 2.3900
2.4000 2.4100 2.4200 2.4300 2.4400 2.4500 2.4600 2.4700
2.4800 2.4900 2.5000 2.5100 2.5200 2.5300 2.5400 2.5500
2.5600 2.5700 2.5800 2.5900 2.6000 2.6100 2.6200 2.6300
2.6400 2.6500 2.6600 2.6700 2.6800 2.6900 2.7000 2.7100
2.7200 2.7300 2.7400 2.7500 2.7600 2.7700 2.7800 2.7900
2.8000 2.8100 2.8200 2.8300 2.8400 2.8500 2.8600 2.8700
2.8800 2.8900 2.9000 2.9100 2.9200 2.9300 2.9400 2.9500
2.9600 2.9700 2.9800 2.9900 3.0000 3.0100 3.0200 3.0300
3.0400 3.0500 3.0600 3.0700 3.0800 3.0900 3.1000 3.1100
3.1200 3.1300 3.1400 3.1500 3.1600 3.1700 3.1800 3.1900
3.2000 3.2100 3.2200 3.2300 3.2400 3.2500 3.2600 3.2700
3.2800 3.2900 3.3000 3.3100 3.3200 3.3300 3.3400 3.3500
3.3600 3.3700 3.3800 3.3900 3.4000 3.4100 3.4200 3.4300
3.4400 3.4500 3.4600 3.4700 3.4800 3.4900 3.5000 3.5100
3.5200 3.5300 3.5400 3.5500 3.5600 3.5700 3.5800 3.5900
3.6000 3.6100 3.6200 3.6300 3.6400 3.6500 3.6600 3.6700
3.6800 3.6900 3.7000 3.7100 3.7200 3.7300 3.7400 3.7500
3.7600 3.7700 3.7800 3.7900 3.8000 3.8100 3.8200 3.8300
3.8400 3.8500 3.8600 3.8700 3.8800 3.8900 3.9000 3.9100
3.9200 3.9300 3.9400 3.9500 3.9600 3.9700 3.9800 3.9900
4.0000 4.0100 4.0200 4.0300 4.0400 4.0500 4.0600 4.0700
4.0800 4.0900 4.1000 4.1100 4.1200 4.1300 4.1400 4.1500
4.1600 4.1700 4.1800 4.1900 4.2000 4.2100 4.2200 4.2300
4.2400 4.2500 4.2600 4.2700 4.2800 4.2900 4.3000 4.3100
4.3200 4.3300 4.3400 4.3500 4.3600 4.3700 4.3800 4.3900
4.4000 4.4100 4.4200 4.4300 4.4400 4.4500 4.4600 4.4700
4.4800 4.4900 4.5000 4.5100 4.5200 4.5300 4.5400 4.5500
4.5600 4.5700 4.5800 4.5900 4.6000 4.6100 4.6200 4.6300
4.6400 4.6500 4.6600 4.6700 4.6800 4.6900 4.7000 4.7100
4.7200 4.7300 4.7400 4.7500 4.7600 4.7700 4.7800 4.7900
4.8000 4.8100 4.8200 4.8300 4.8400 4.8500 4.8600 4.8700
4.8800 4.8900 4.9000 4.9100 4.9200 4.9300 4.9400 4.9500
4.9600 4.9700 4.9800 4.9900 5.0000 5.0100 5.0200 5.0300
5.0400 5.0500 5.0600 5.0700 5.0800 5.0900 5.1000 5.1100
5.1200 5.1300 5.1400 5.1500 5.1600 5.1700 5.1800 5.1900
5.2000 5.2100 5.2200 5.2300 5.2400 5.2500 5.2600 5.2700
5.2800 5.2900 5.3000 5.3100 5.3200 5.3300 5.3400 5.3500
5.3600 5.3700 5.3800 5.3900 5.4000 5.4100 5.4200 5.4300
5.4400 5.4500 5.4600 5.4700 5.4800 5.4900 5.5000 5.5100
5.5200 5.5300 5.5400 5.5500 5.5600 5.5700 5.5800 5.5900
5.6000 5.6100 5.6200 5.6300 5.6400 5.6500 5.6600 5.6700
5.6800 5.6900 5.7000 5.7100 5.7200 5.7300 5.7400 5.7500
5.7600 5.7700 5.7800 5.7900 5.8000 5.8100 5.8200 5.8300
5.8400 5.8500 5.8600 5.8700 5.8800 5.8900 5.9000 5.9100
5.9200 5.9300 5.9400 5.9500 5.9600 5.9700 5.9800 5.9900
6.0000 6.0100 6.0200 6.0300 6.0400 6.0500 6.0600 6.0700
6.0800 6.0900 6.1000 6.1100 6.1200 6.1300 6.1400 6.1500
6.1600 6.1700 6.1800 6.1900 6.2000 6.2100 6.2200 6.2300
6.2400 6.2500 6.2600 6.2700 6.2800 6.2900 6.3000 6.3100
6.3200 6.3300 6.3400 6.3500 6.3600 6.3700 6.3800 6.3900
6.4000 6.4100 6.4200 6.4300 6.4400 6.4500 6.4600 6.4700
6.4800 6.4900 6.5000 6.5100 6.5200 6.5300 6.5400 6.5500
6.5600 6.5700 6.5800 6.5900 6.6000 6.6100 6.6200 6.6300
6.6400 6.6500 6.6600 6.6700 6.6800 6.6900 6.7000 6.7100
6.7200 6.7300 6.7400 6.7500 6.7600 6.7700 6.7800 6.7900
6.8000 6.8100 6.8200 6.8300 6.8400 6.8500 6.8600 6.8700
6.8800 6.8900 6.9000 6.9100 6.9200 6.9300 6.9400 6.9500
6.9600 6.9700 6.9800 6.9900 7.0000 7.0100 7.0200 7.0300
7.0400 7.0500 7.0600 7.0700 7.0800 7.0900 7.1000 7.1100
7.1200 7.1300 7.1400 7.1500 7.1600 7.1700 7.1800 7.1900
7.2000 7.2100 7.2200 7.2300 7.2400 7.2500 7.2600 7.2700
7.2800 7.2900 7.3000 7.3100 7.3200 7.3300 7.3400 7.3500
7.3600 7.3700 7.3800 7.3900 7.4000 7.4100 7.4200 7.4300
7.4400 7.4500 7.4600 7.4700 7.4800 7.4900 7.5000 7.5100
7.5200 7.5300 7.5400 7.5500 7.5600 7.5700 7.5800 7.5900
7.6000 7.6100 7.6200 7.6300 7.6400 7.6500 7.6600 7.6700
7.6800 7.6900 7.7000 7.7100 7.7200 7.7300 7.7400 7.7500
7.7600 7.7700 7.7800 7.7900 7.8000 7.8100 7.8200 7.8300
7.8400 7.8500 7.8600 7.8700 7.8800 7.8900 7.9000 7.9100
7.9200 7.9300 7.9400 7.9500 7.9600 7.9700 7.9800 7.9900
8.0000 8.0100 8.0200 8.0300 8.0400 8.0500 8.0600 8.0700
8.0800 8.0900 8.1000 8.1100 8.1200 8.1300 8.1400 8.1500
8.1600 8.1700 8.1800 8.1900 8.2000 8.2100 8.2200 8.2300
8.2400 8.2500 8.2600 8.2700 8.2800 8.2900 8.3000 8.3100
8.3200 8.3300 8.3400 8.3500 8.3600 8.3700 8.3800 8.3900
8.4000 8.4100 8.4200 8.4300 8.4400 8.4500 8.4600 8.4700
8.4800 8.4900 8.5000 8.5100 8.5200 8.5300 8.5400 8.5500
8.5600 8.5700 8.5800 8.5900 8.6000 8.6100 8.6200 8.6300
8.6400 8.6500 8.6600 8.6700 8.6800 8.6900 8.7000 8.7100
8.7200 8.7300 8.7400 8.7500 8.7600 8.7700 8.7800 8.7900
8.8000 8.8100 8.8200 8.8300 8.8400 8.8500 8.8600 8.8700
8.8800 8.8900 8.9000 8.9100 8.9200 8.9300 8.9400 8.9500
8.9600 8.9700 8.9800 8.9900 9.0000 9.0100 9.0200 9.0300
9.0400 9.0500 9.0600 9.0700 9.0800 9.0900 9.1000 9.1100
9.1200 9.1300 9.1400 9.1500 9.1600 9.1700 9.1800 9.1900
9.2000 9.2100 9.2200 9.2300 9.2400 9.2500 9.2600 9.2700
9.2800 9.2900 9.3000 9.3100 9.3200 9.3300 9.3400 9.3500
9.3600 9.3700 9.3800 9.3900 9.4000 9.4100 9.4200 9.4300
9.4400 9.4500 9.4600 9.4700 9.4800 9.4900 9.5000 9.5100
9.5200 9.5300 9.5400 9.5500 9.5600 9.5700 9.5800 9.5900
9.6000 9.6100 9.6200 9.6300 9.6400 9.6500 9.6600 9.6700
9.6800 9.6900 9.7000 9.7100 9.7200 9.7300 9.7400 9.7500
9.7600 9.7700 9.7800 9.7900 9.8000 9.8100 9.8200 9.8300
9.8400 9.8500 9.8600 9.8700 9.8800 9.8900 9.9000 9.9100
9.9200 9.9300 9.9400 9.9500 9.9600 9.9700 9.9800 9.9900
10.0000 10.0100 10.0200 10.0300 10.0400 10.0500 10.0600 10.0700
10.0800 10.0900 10.1000 10.1100 10.1200 10.1300 10.1400 10.1500
10.1600 10.1700 10.1800 10.1900 10.2000 10.2100 10.2200 10.2300
10.2400 10.2500 10.2600 10.2700 10.2800 10.2900 10.3000 10.3100
10.3200 10.3300 10.3400 10.3500 10.3600 10.3700 10.3800 10.3900
10.4000 10.4100 10.4200 10.4300 10.4400 10.4500 10.4600 10.4700
10.4800 10.4900 10.5000 10.5100 10.5200 10.5300 10.5400 10.5500
10.5600 10.5700 10.5800 10.5900 10.6000 10.6100 10.6200 10.6300
10.6400 10.6500 10.6600 10.6700 10.6800 10.6900 10.7000 10.7100
10.7200 10.7300 10.7400 10.7500 10.7600 10.7700 10.7800 10.7900
10.8000 10.8100 10.8200 10.8300 10.8400 10.8500 10.8600 10.8700
10.8800 10.8900 10.9000 10.9100 10.9200 10.9300 10.9400 10.9500
10.9600 10.9700</PP_R><PP_RAB type="real" size="1098" columns="8">
0.0100 0.0100 0.0100 0.0100 0.0100 0.0100 0.0100 0.0100
0.0100 0.0100 0.0100 0.0100 0.0100 0.0100 0.0100 0.0100
0.0100 0.0100 0.0100 0.0100 0.0100 0.0100 0.0100 0.0100
0.0100 0.0100 0.0100 0.0100 0.0100 0.0100 0.0100 0.0100
0.0100 0.0100 0.0100 0.0100 0.0100 0.0100 0.0100 0.0100
0.0100 0.0100 0.0100 0.0100 0.0100 0.0100 0.0100 0.0100
0.0100 0.0100 0.0100 0.0100 0.0100 0.0100 0.0100 0.0100
0.0100 0.0100 0.0100 0.0100 0.0100 0.0100 0.0100 0.0100
0.0100 0.0100 0.0100 0.0100 0.0100 0.0100 0.0100 0.0100
0.0100 0.0100 0.0100 0.0100 0.0100 0.0100 0.0100 0.0100
0.0100 0.0100 0.0100 0.0100 0.0100 0.0100 0.0100 0.0100
0.0100 0.0100 0.0100 0.0100 0.0100 0.0100 0.0100 0.0100
0.0100 0.0100 0.0100 0.0100 0.0100 0.0100 0.0100 0.0100
0.0100 0.0100 0.0100 0.0100 0.0100 0.0100 0.0100 0.0100
0.0100 0.0100 0.0100 0.0100 0.0100 0.0100 0.0100 0.0100
0.0100 0.0100 0.0100 0.0100 0.0100 0.0100 0.0100 0.0100
0.0100 0.0100 0.0100 0.0100 0.0100 0.0100 0.0100 0.0100
0.0100 0.0100 0.0100 0.0100 0.0100 0.0100 0.0100 0.0100
0.0100 0.0100 0.0100 0.0100 0.0100 0.0100 0.0100 0.0100
0.0100 0.0100 0.0100 0.0100 0.0100 0.0100 0.0100 0.0100
0.0100 0.0100 0.0100 0.0100 0.0100 0.0100 0.0100 0.0100
0.0100 0.0100 0.0100 0.0100 0.0100 0.0100 0.0100 0.0100
0.0100 0.0100 0.0100 0.0100 0.0100 0.0100 0.0100 0.0100
0.0100 0.0100 0.0100 0.0100 0.0100 0.0100 0.0100 0.0100
0.0100 0.0100 0.0100 0.0100 0.0100 0.0100 0.0100 0.0100
0.0100 0.0100 0.0100 0.0100 0.0100 0.0100 0.0100 0.0100
0.0100 0.0100 0.0100 0.0100 0.0100 0.0100 0.0100 0.0100
0.0100 0.0100 0.0100 0.0100 0.0100 0.0100 0.0100 0.0100
0.0100 0.0100 0.0100 0.0100 0.0100 0.0100 0.0100 0.0100
0.0100 0.0100 0.0100 0.0100 0.0100 0.0100 0.0100 0.0100
0.0100 0.0100 0.0100 0.0100 0.0100 0.0100 0.0100 0.0100
0.0100 0.0100 0.0100 0.0100 0.0100 0.0100 0.0100 0.0100
0.0100 0.0100 0.0100 0.0100 0.0100 0.0100 0.0100 0.0100
0.0100 0.0100 0.0100 0.0100 0.0100 0.0100 0.0100 0.0100
0.0100 0.0100 0.0100 0.0100 0.0100 0.0100 0.0100 0.0100
0.0100 0.0100 0.0100 0.0100 0.0100 0.0100 0.0100 0.0100
0.0100 0.0100 0.0100 0.0100 0.0100 0.0100 0.0100 0.0100
0.0100 0.0100 0.0100 0.0100 0.0100 0.0100 0.0100 0.0100
0.0100 0.0100 0.0100 0.0100 0.0100 0.0100 0.0100 0.0100
0.0100 0.0100 0.0100 0.0100 0.0100 0.0100 0.0100 0.0100
0.0100 0.0100 0.0100 0.0100 0.0100 0.0100 0.0100 0.0100
0.0100 0.0100 0.0100 0.0100 0.0100 0.0100 0.0100 0.0100
0.0100 0.0100 0.0100 0.0100 0.0100 0.0100 0.0100 0.0100
0.0100 0.0100 0.0100 0.0100 0.0100 0.0100 0.0100 0.0100
0.0100 0.0100 0.0100 0.0100 0.0100 0.0100 0.0100 0.0100
0.0100 0.0100 0.0100 0.0100 0.0100 0.0100 0.0100 0.0100
0.0100 0.0100 0.0100 0.0100 0.0100 0.0100 0.0100 0.0100
0.0100 0.0100 0.0100 0.0100 0.0100 0.0100 0.0100 0.0100
0.0100 0.0100 0.0100 0.0100 0.0100 0.0100 0.0100 0.0100
0.0100 0.0100 0.0100 0.0100 0.0100 0.0100 0.0100 0.0100
0.0100 0.0100 0.0100 0.0100 0.0100 0.0100 0.0100 0.0100
0.0100 0.0100 0.0100 0.0100 0.0100 0.0100 0.0100 0.0100
0.0100 0.0100 0.0100 0.0100 0.0100 0.0100 0.0100 0.0100
0.0100 0.0100 0.0100 0.0100 0.0100 0.0100 0.0100 0.0100
0.0100 0.0100 0.0100 0.0100 0.0100 0.0100 0.0100 0.0100
0.0100 0.0100 0.0100 0.0100 0.0100 0.0100 0.0100 0.0100
0.0100 0.0100 0.0100 0.0100 0.0100 0.0100 0.0100 0.0100
0.0100 0.0100 0.0100 0.0100 0.0100 0.0100 0.0100 0.0100
0.0100 0.0100 0.0100 0.0100 0.0100 0.0100 0.0100 0.0100
0.0100 0.0100 0.0100 0.0100 0.0100 0.0100 0.0100 0.0100
0.0100 0.0100 0.0100 0.0100 0.0100 0.0100 0.0100 0.0100
0.0100 0.0100 0.0100 0.0100 0.0100 0.0100 0.0100 0.0100
0.0100 0.0100 0.0100 0.0100 0.0100 0.0100 0.0100 0.0100
0.0100 0.0100 0.0100 0.0100 0.0100 0.0100 0.0100 0.0100
0.0100 0.0100 0.0100 0.0100 0.0100 0.0100 0.0100 0.0100
0.0100 0.0100 0.0100 0.0100 0.0100 0.0100 0.0100 0.0100
0.0100 0.0100 0.0100 0.0100 0.0100 0.0100 0.0100 0.0100
0.0100 0.0100 0.0100 0.0100 0.0100 0.0100 0.0100 0.0100
0.0100 0.0100 0.0100 0.0100 0.0100 0.0100 0.0100 0.0100
0.0100 0.0100 0.0100 0.0100 0.0100 0.0100 0.0100 0.0100
0.0100 0.0100 0.0100 0.0100 0.0100 0.0100 0.0100 0.0100
0.0100 0.0100 0.0100 0.0100 0.0100 0.0100 0.0100 0.0100
0.0100 0.0100 0.0100 0.0100 0.0100 0.0100 0.0100 0.0100
0.0100 0.0100 0.0100 0.0100 0.0100 0.0100 0.0100 0.0100
0.0100 0.0100 0.0100 0.0100 0.0100 0.0100 0.0100 0.0100
0.0100 0.0100 0.0100 0.0100 0.0100 0.0100 0.0100 0.0100
0.0100 0.0100 0.0100 0.0100 0.0100 0.0100 0.0100 0.0100
0.0100 0.0100 0.0100 0.0100 0.0100 0.0100 0.0100 0.0100
0.0100 0.0100 0.0100 0.0100 0.0100 0.0100 0.0100 0.0100
0.0100 0.0100 0.0100 0.0100 0.0100 0.0100 0.0100 0.0100
0.0100 0.0100 0.0100 0.0100 0.0100 0.0100 0.0100 0.0100
0.0100 0.0100 0.0100 0.0100 0.0100 0.0100 0.0100 0.0100
0.0100 0.0100 0.0100 0.0100 0.0100 0.0100 0.0100 0.0100
0.0100 0.0100 0.0100 0.0100 0.0100 0.0100 0.0100 0.0100
0.0100 0.0100 0.0100 0.0100 0.0100 0.0100 0.0100 0.0100
0.0100 0.0100 0.0100 0.0100 0.0100 0.0100 0.0100 0.0100
0.0100 0.0100 0.0100 0.0100 0.0100 0.0100 0.0100 0.0100
0.0100 0.0100 0.0100 0.0100 0.0100 0.0100 0.0100 0.0100
0.0100 0.0100 0.0100 0.0100 0.0100 0.0100 0.0100 0.0100
0.0100 0.0100 0.0100 0.0100 0.0100 0.0100 0.0100 0.0100
0.0100 0.0100 0.0100 0.0100 0.0100 0.0100 0.0100 0.0100
0.0100 0.0100 0.0100 0.0100 0.0100 0.0100 0.0100 0.0100
0.0100 0.0100 0.0100 0.0100 0.0100 0.0100 0.0100 0.0100
0.0100 0.0100 0.0100 0.0100 0.0100 0.0100 0.0100 0.0100
0.0100 0.0100 0.0100 0.0100 0.0100 0.0100 0.0100 0.0100
0.0100 0.0100 0.0100 0.0100 0.0100 0.0100 0.0100 0.0100
0.0100 0.0100 0.0100 0.0100 0.0100 0.0100 0.0100 0.0100
0.0100 0.0100 0.0100 0.0100 0.0100 0.0100 0.0100 0.0100
0.0100 0.0100 0.0100 0.0100 0.0100 0.0100 0.0100 0.0100
0.0100 0.0100 0.0100 0.0100 0.0100 0.0100 0.0100 0.0100
0.0100 0.0100 0.0100 0.0100 0.0100 0.0100 0.0100 0.0100
0.0100 0.0100 0.0100 0.0100 0.0100 0.0100 0.0100 0.0100
0.0100 0.0100 0.0100 0.0100 0.0100 0.0100 0.0100 0.0100
0.0100 0.0100 0.0100 0.0100 0.0100 0.0100 0.0100 0.0100
0.0100 0.0100 0.0100 0.0100 0.0100 0.0100 0.0100 0.0100
0.0100 0.0100 0.0100 0.0100 0.0100 0.0100 0.0100 0.0100
0.0100 0.0100 0.0100 0.0100 0.0100 0.0100 0.0100 0.0100
0.0100 0.0100 0.0100 0.0100 0.0100 0.0100 0.0100 0.0100
0.0100 0.0100 0.0100 0.0100 0.0100 0.0100 0.0100 0.0100
0.0100 0.0100 0.0100 0.0100 0.0100 0.0100 0.0100 0.0100
0.0100 0.0100 0.0100 0.0100 0.0100 0.0100 0.0100 0.0100
0.0100 0.0100 0.0100 0.0100 0.0100 0.0100 0.0100 0.0100
0.0100 0.0100 0.0100 0.0100 0.0100 0.0100 0.0100 0.0100
0.0100 0.0100 0.0100 0.0100 0.0100 0.0100 0.0100 0.0100
0.0100 0.0100 0.0100 0.0100 0.0100 0.0100 0.0100 0.0100
0.0100 0.0100 0.0100 0.0100 0.0100 0.0100 0.0100 0.0100
0.0100 0.0100 0.0100 0.0100 0.0100 0.0100 0.0100 0.0100
0.0100 0.0100 0.0100 0.0100 0.0100 0.0100 0.0100 0.0100
0.0100 0.0100 0.0100 0.0100 0.0100 0.0100 0.0100 0.0100
0.0100 0.0100 0.0100 0.0100 0.0100 0.0100 0.0100 0.0100
0.0100 0.0100 0.0100 0.0100 0.0100 0.0100 0.0100 0.0100
0.0100 0.0100 0.0100 0.0100 0.0100 0.0100 0.0100 0.0100
0.0100 0.0100 0.0100 0.0100 0.0100 0.0100 0.0100 0.0100
0.0100 0.0100 0.0100 0.0100 0.0100 0.0100 0.0100 0.0100
0.0100 0.0100 0.0100 0.0100 0.0100 0.0100 0.0100 0.0100
0.0100 0.0100 0.0100 0.0100 0.0100 0.0100 0.0100 0.0100
0.0100 0.0100 0.0100 0.0100 0.0100 0.0100 0.0100 0.0100
0.0100 0.0100 0.0100 0.0100 0.0100 0.0100 0.0100 0.0100
0.0100 0.0100 0.0100 0.0100 0.0100 0.0100 0.0100 0.0100
0.0100 0.0100 0.0100 0.0100 0.0100 0.0100 0.0100 0.0100
0.0100 0.0100 0.0100 0.0100 0.0100 0.0100 0.0100 0.0100
0.0100 0.0100 0.0100 0.0100 0.0100 0.0100 0.0100 0.0100
0.0100 0.0100 0.0100 0.0100 0.0100 0.0100 0.0100 0.0100
0.0100 0.0100 0.0100 0.0100 0.0100 0.0100 0.0100 0.0100
0.0100 0.0100 0.0100 0.0100 0.0100 0.0100 0.0100 0.0100
0.0100 0.0100 0.0100 0.0100 0.0100 0.0100 0.0100 0.0100
0.0100 0.0100 0.0100 0.0100 0.0100 0.0100 0.0100 0.0100
0.0100 0.0100</PP_RAB></PP_MESH><PP_LOCAL type="real" size="1098" columns="4">
-2.0042349405E+01 -2.0041502574E+01 -2.0038962355E+01 -2.0034729595E+01
-2.0028805699E+01 -2.0021192632E+01 -2.0011892921E+01 -2.0000909647E+01
-1.9988246447E+01 -1.9973907510E+01 -1.9957897573E+01 -1.9940221918E+01
-1.9920886368E+01 -1.9899897283E+01 -1.9877261553E+01 -1.9852986596E+01
-1.9827080353E+01 -1.9799551278E+01 -1.9770408337E+01 -1.9739660999E+01
-1.9707319232E+01 -1.9673393493E+01 -1.9637894726E+01 -1.9600834349E+01
-1.9562224254E+01 -1.9522076793E+01 -1.9480404777E+01 -1.9437221461E+01
-1.9392540545E+01 -1.9346376158E+01 -1.9298742856E+01 -1.9249655609E+01
-1.9199129799E+01 -1.9147181203E+01 -1.9093825992E+01 -1.9039080719E+01
-1.8982962308E+01 -1.8925488050E+01 -1.8866675588E+01 -1.8806542910E+01
-1.8745108339E+01 -1.8682390526E+01 -1.8618408434E+01 -1.8553181331E+01
-1.8486728780E+01 -1.8419070628E+01 -1.8350226997E+01 -1.8280218268E+01
-1.8209065079E+01 -1.8136788308E+01 -1.8063409065E+01 -1.7988948683E+01
-1.7913428707E+01 -1.7836870886E+01 -1.7759297164E+01 -1.7680729669E+01
-1.7601190712E+01 -1.7520702771E+01 -1.7439288494E+01 -1.7356970686E+01
-1.7273772310E+01 -1.7189716480E+01 -1.7104826460E+01 -1.7019125662E+01
-1.6932637645E+01 -1.6845386115E+01 -1.6757394925E+01 -1.6668688082E+01
-1.6579289744E+01 -1.6489224225E+01 -1.6398516000E+01 -1.6307189713E+01
-1.6215270173E+01 -1.6122782370E+01 -1.6029751471E+01 -1.5936202832E+01
-1.5842162000E+01 -1.5747654714E+01 -1.5652706917E+01 -1.5557344749E+01
-1.5461594557E+01 -1.5365482891E+01 -1.5269036503E+01 -1.5172282347E+01
-1.5075247571E+01 -1.4977959517E+01 -1.4880445705E+01 -1.4782733832E+01
-1.4684851751E+01 -1.4586827468E+01 -1.4488689115E+01 -1.4390464941E+01
-1.4292183288E+01 -1.4193872573E+01 -1.4095561262E+01 -1.3997277849E+01
-1.3899050831E+01 -1.3800908677E+01 -1.3702879809E+01 -1.3604992566E+01
-1.3507275183E+01 -1.3409755758E+01 -1.3312462230E+01 -1.3215422343E+01
-1.3118663626E+01 -1.3022213363E+01 -1.2926098570E+01 -1.2830345965E+01
-1.2734981949E+01 -1.2640032582E+01 -1.2545523558E+01 -1.2451480190E+01
-1.2357927382E+01 -1.2264889617E+01 -1.2172390935E+01 -1.2080454916E+01
-1.1989104660E+01 -1.1898362774E+01 -1.1808251348E+01 -1.1718791944E+01
-1.1630005572E+01 -1.1541912674E+01 -1.1454533100E+01 -1.1367886091E+01
-1.1281990251E+01 -1.1196863525E+01 -1.1112523172E+01 -1.1028985738E+01
-1.0946267023E+01 -1.0864382048E+01 -1.0783345024E+01 -1.0703169313E+01
-1.0623867391E+01 -1.0545450804E+01 -1.0467930127E+01 -1.0391314922E+01
-1.0315613686E+01 -1.0240833804E+01 -1.0166981504E+01 -1.0094061795E+01
-1.0022078422E+01 -9.9510338061E+00 -9.8809289881E+00 -9.8117635809E+00
-9.7435356804E+00 -9.6762418410E+00 -9.6098769416E+00 -9.5444343287E+00
-9.4799060683E+00 -9.4162821600E+00 -9.3535499766E+00 -9.2916909141E+00
-9.2306801856E+00 -9.1704891245E+00 -9.1110886249E+00 -9.0524555441E+00
-8.9945714230E+00 -8.9374207605E+00 -8.8809890816E+00 -8.8252600512E+00
-8.7702174109E+00 -8.7158457386E+00 -8.6621302525E+00 -8.6090570596E+00
-8.5566126468E+00 -8.5047837141E+00 -8.4535574574E+00 -8.4029215806E+00
-8.3528641952E+00 -8.3033738134E+00 -8.2544393532E+00 -8.2060501271E+00
-8.1581958375E+00 -8.1108665592E+00 -8.0640527418E+00 -8.0177451963E+00
-7.9719349981E+00 -7.9266135046E+00 -7.8817724853E+00 -7.8374041676E+00
-7.7935017307E+00 -7.7500597456E+00 -7.7070735839E+00 -7.6645394721E+00
-7.6224536903E+00 -7.5808114580E+00 -7.5396073236E+00 -7.4988353830E+00
-7.4584895137E+00 -7.4185639034E+00 -7.3790533492E+00 -7.3399528418E+00
-7.3012573457E+00 -7.2629619460E+00 -7.2250616960E+00 -7.1875516811E+00
-7.1504271007E+00 -7.1136832660E+00 -7.0773155424E+00 -7.0413193211E+00
-7.0056900441E+00 -6.9704232033E+00 -6.9355143310E+00 -6.9009589952E+00
-6.8667527972E+00 -6.8328913682E+00 -6.7993703674E+00 -6.7661854794E+00
-6.7333324120E+00 -6.7008068948E+00 -6.6686046782E+00 -6.6367215316E+00
-6.6051532435E+00 -6.5738956205E+00 -6.5429444875E+00 -6.5122956875E+00
-6.4819450825E+00 -6.4518885534E+00 -6.4221220014E+00 -6.3926413488E+00
-6.3634425402E+00 -6.3345215440E+00 -6.3058743540E+00 -6.2774969908E+00
-6.2493855041E+00 -6.2215359742E+00 -6.1939445144E+00 -6.1666072728E+00
-6.1395204344E+00 -6.1126802237E+00 -6.0860829063E+00 -6.0597247916E+00
-6.0336022346E+00 -6.0077116382E+00 -5.9820494555E+00 -5.9566121914E+00
-5.9313964048E+00 -5.9063987105E+00 -5.8816157809E+00 -5.8570443474E+00
-5.8326812024E+00 -5.8085232005E+00 -5.7845672593E+00 -5.7608103614E+00
-5.7372495545E+00 -5.7138819526E+00 -5.6907047367E+00 -5.6677151547E+00
-5.6449105226E+00 -5.6222882237E+00 -5.5998457091E+00 -5.5775804974E+00
-5.5554901741E+00 -5.5335723910E+00 -5.5118248660E+00 -5.4902453815E+00
-5.4688317840E+00 -5.4475819822E+00 -5.4264939464E+00 -5.4055657066E+00
-5.3847953511E+00 -5.3641810247E+00 -5.3437209266E+00 -5.3234133092E+00
-5.3032564754E+00 -5.2832487767E+00 -5.2633886113E+00 -5.2436744214E+00
-5.2241046915E+00 -5.2046779456E+00 -5.1853927451E+00 -5.1662476864E+00
-5.1472413986E+00 -5.1283725413E+00 -5.1096398020E+00 -5.0910418938E+00
-5.0725775538E+00 -5.0542455400E+00 -5.0360446300E+00 -5.0179736184E+00
-5.0000313154E+00 -4.9822165443E+00 -4.9645281405E+00 -4.9469649493E+00
-4.9295258245E+00 -4.9122096273E+00 -4.8950152249E+00 -4.8779414890E+00
-4.8609872956E+00 -4.8441515234E+00 -4.8274330536E+00 -4.8108307690E+00
-4.7943435538E+00 -4.7779702934E+00 -4.7617098738E+00 -4.7455611821E+00
-4.7295231062E+00 -4.7135945352E+00 -4.6977743598E+00 -4.6820614725E+00
-4.6664547685E+00 -4.6509531457E+00 -4.6355555060E+00 -4.6202607558E+00
-4.6050678067E+00 -4.5899755765E+00 -4.5749829901E+00 -4.5600889800E+00
-4.5452924880E+00 -4.5305924654E+00 -4.5159878743E+00 -4.5014776882E+00
-4.4870608931E+00 -4.4727364882E+00 -4.4585034868E+00 -4.4443609168E+00
-4.4303078216E+00 -4.4163432605E+00 -4.4024663092E+00 -4.3886760606E+00
-4.3749716246E+00 -4.3613521289E+00 -4.3478167189E+00 -4.3343645578E+00
-4.3209948270E+00 -4.3077067254E+00 -4.2944994697E+00 -4.2813722943E+00
-4.2683244507E+00 -4.2553552071E+00 -4.2424638481E+00 -4.2296496745E+00
-4.2169120019E+00 -4.2042501612E+00 -4.1916634969E+00 -4.1791513672E+00
-4.1667131426E+00 -4.1543482059E+00 -4.1420559508E+00 -4.1298357814E+00
-4.1176871114E+00 -4.1056093633E+00 -4.0936019676E+00 -4.0816643623E+00
-4.0697959917E+00 -4.0579963062E+00 -4.0462647616E+00 -4.0346008178E+00
-4.0230039392E+00 -4.0114735936E+00 -4.0000092519E+00 -3.9886103875E+00
-3.9772764762E+00 -3.9660069958E+00 -3.9548014257E+00 -3.9436592469E+00
-3.9325799417E+00 -3.9215629940E+00 -3.9106078887E+00 -3.8997141123E+00
-3.8888811525E+00 -3.8781084986E+00 -3.8673956417E+00 -3.8567420749E+00
-3.8461472934E+00 -3.8356107947E+00 -3.8251320793E+00 -3.8147106507E+00
-3.8043460157E+00 -3.7940376851E+00 -3.7837851737E+00 -3.7735880005E+00
-3.7634456898E+00 -3.7533577707E+00 -3.7433237778E+00 -3.7333432515E+00
-3.7234157383E+00 -3.7135407909E+00 -3.7037179685E+00 -3.6939468373E+00
-3.6842269697E+00 -3.6745579458E+00 -3.6649393526E+00 -3.6553707840E+00
-3.6458518416E+00 -3.6363821341E+00 -3.6269612753E+00 -3.6175888869E+00
-3.6082645981E+00 -3.5989880383E+00 -3.5897588551E+00 -3.5805767053E+00
-3.5714412462E+00 -3.5623521389E+00 -3.5533090682E+00 -3.5443116706E+00
-3.5353596047E+00 -3.5264525356E+00 -3.5175901371E+00 -3.5087720936E+00
-3.4999980968E+00 -3.4912678550E+00 -3.4825810922E+00 -3.4739375063E+00
-3.4653368604E+00 -3.4567789981E+00 -3.4482637151E+00 -3.4397907950E+00
-3.4313600653E+00 -3.4229712042E+00 -3.4146238298E+00 -3.4063175666E+00
-3.3980520120E+00 -3.3898267755E+00 -3.3816413910E+00 -3.3734953974E+00
-3.3653883569E+00 -3.3573198557E+00 -3.3492893865E+00 -3.3412967524E+00
-3.3333417481E+00 -3.3254241695E+00 -3.3175438362E+00 -3.3097006485E+00
-3.3018943711E+00 -3.2941247895E+00 -3.2863916995E+00 -3.2786948864E+00
-3.2710341527E+00 -3.2634092328E+00 -3.2558198536E+00 -3.2482657459E+00
-3.2407466376E+00 -3.2332622226E+00 -3.2258122577E+00 -3.2183965267E+00
-3.2110147964E+00 -3.2036668389E+00 -3.1963524401E+00 -3.1890713799E+00
-3.1818234186E+00 -3.1746083309E+00 -3.1674258933E+00 -3.1602758834E+00
-3.1531580789E+00 -3.1460722654E+00 -3.1390182277E+00 -3.1319957527E+00
-3.1250046289E+00 -3.1180446471E+00 -3.1111155996E+00 -3.1042172806E+00
-3.0973494862E+00 -3.0905120141E+00 -3.0837046641E+00 -3.0769272375E+00
-3.0701795375E+00 -3.0634613689E+00 -3.0567725383E+00 -3.0501128540E+00
-3.0434821257E+00 -3.0368801652E+00 -3.0303067856E+00 -3.0237618017E+00
-3.0172450298E+00 -3.0107562881E+00 -3.0042953960E+00 -2.9978621745E+00
-2.9914564464E+00 -2.9850780358E+00 -2.9787267682E+00 -2.9724024708E+00
-2.9661049722E+00 -2.9598341023E+00 -2.9535896926E+00 -2.9473715761E+00
-2.9411795869E+00 -2.9350135607E+00 -2.9288733346E+00 -2.9227587470E+00
-2.9166696376E+00 -2.9106058475E+00 -2.9045672191E+00 -2.8985535962E+00
-2.8925648236E+00 -2.8866007477E+00 -2.8806612160E+00 -2.8747460773E+00
-2.8688551817E+00 -2.8629883803E+00 -2.8571455257E+00 -2.8513264716E+00
-2.8455310727E+00 -2.8397591852E+00 -2.8340106663E+00 -2.8282853742E+00
-2.8225831686E+00 -2.8169039100E+00 -2.8112474602E+00 -2.8056136821E+00
-2.8000024396E+00 -2.7944135978E+00 -2.7888470227E+00 -2.7833025816E+00
-2.7777801427E+00 -2.7722795753E+00 -2.7668007497E+00 -2.7613435373E+00
-2.7559078104E+00 -2.7504934423E+00 -2.7451003074E+00 -2.7397282810E+00
-2.7343772395E+00 -2.7290470602E+00 -2.7237376211E+00 -2.7184488016E+00
-2.7131804817E+00 -2.7079325424E+00 -2.7027048658E+00 -2.6974973347E+00
-2.6923098328E+00 -2.6871422448E+00 -2.6819944563E+00 -2.6768663537E+00
-2.6717578242E+00 -2.6666687560E+00 -2.6615990381E+00 -2.6565485604E+00
-2.6515172135E+00 -2.6465048889E+00 -2.6415114789E+00 -2.6365368767E+00
-2.6315809762E+00 -2.6266436722E+00 -2.6217248601E+00 -2.6168244362E+00
-2.6119422976E+00 -2.6070783423E+00 -2.6022324686E+00 -2.5974045761E+00
-2.5925945649E+00 -2.5878023357E+00 -2.5830277901E+00 -2.5782708304E+00
-2.5735313596E+00 -2.5688092816E+00 -2.5641045006E+00 -2.5594169218E+00
-2.5547464511E+00 -2.5500929949E+00 -2.5454564605E+00 -2.5408367557E+00
-2.5362337890E+00 -2.5316474696E+00 -2.5270777074E+00 -2.5225244129E+00
-2.5179874972E+00 -2.5134668721E+00 -2.5089624500E+00 -2.5044741440E+00
-2.5000018677E+00 -2.4955455353E+00 -2.4911050618E+00 -2.4866803627E+00
-2.4822713540E+00 -2.4778779525E+00 -2.4735000754E+00 -2.4691376405E+00
-2.4647905664E+00 -2.4604587720E+00 -2.4561421768E+00 -2.4518407011E+00
-2.4475542656E+00 -2.4432827914E+00 -2.4390262004E+00 -2.4347844150E+00
-2.4305573579E+00 -2.4263449528E+00 -2.4221471234E+00 -2.4179637943E+00
-2.4137948904E+00 -2.4096403373E+00 -2.4055000611E+00 -2.4013739882E+00
-2.3972620456E+00 -2.3931641610E+00 -2.3890802623E+00 -2.3850102780E+00
-2.3809541373E+00 -2.3769117695E+00 -2.3728831046E+00 -2.3688680730E+00
-2.3648666058E+00 -2.3608786342E+00 -2.3569040901E+00 -2.3529429058E+00
-2.3489950140E+00 -2.3450603479E+00 -2.3411388413E+00 -2.3372304281E+00
-2.3333350430E+00 -2.3294526208E+00 -2.3255830971E+00 -2.3217264075E+00
-2.3178824884E+00 -2.3140512765E+00 -2.3102327087E+00 -2.3064267228E+00
-2.3026332564E+00 -2.2988522481E+00 -2.2950836365E+00 -2.2913273607E+00
-2.2875833603E+00 -2.2838515753E+00 -2.2801319458E+00 -2.2764244127E+00
-2.2727289169E+00 -2.2690454001E+00 -2.2653738040E+00 -2.2617140708E+00
-2.2580661432E+00 -2.2544299642E+00 -2.2508054770E+00 -2.2471926253E+00
-2.2435913533E+00 -2.2400016053E+00 -2.2364233262E+00 -2.2328564609E+00
-2.2293009551E+00 -2.2257567545E+00 -2.2222238053E+00 -2.2187020540E+00
-2.2151914475E+00 -2.2116919329E+00 -2.2082034577E+00 -2.2047259699E+00
-2.2012594175E+00 -2.1978037490E+00 -2.1943589134E+00 -2.1909248597E+00
-2.1875015373E+00 -2.1840888962E+00 -2.1806868862E+00 -2.1772954580E+00
-2.1739145621E+00 -2.1705441495E+00 -2.1671841717E+00 -2.1638345801E+00
-2.1604953268E+00 -2.1571663639E+00 -2.1538476439E+00 -2.1505391197E+00
-2.1472407443E+00 -2.1439524710E+00 -2.1406742537E+00 -2.1374060461E+00
-2.1341478026E+00 -2.1308994775E+00 -2.1276610258E+00 -2.1244324025E+00
-2.1212135628E+00 -2.1180044624E+00 -2.1148050572E+00 -2.1116153032E+00
-2.1084351569E+00 -2.1052645749E+00 -2.1021035142E+00 -2.0989519319E+00
-2.0958097854E+00 -2.0926770325E+00 -2.0895536311E+00 -2.0864395393E+00
-2.0833347156E+00 -2.0802391188E+00 -2.0771527077E+00 -2.0740754414E+00
-2.0710072795E+00 -2.0679481816E+00 -2.0648981076E+00 -2.0618570175E+00
-2.0588248718E+00 -2.0558016311E+00 -2.0527872561E+00 -2.0497817081E+00
-2.0467849481E+00 -2.0437969378E+00 -2.0408176389E+00 -2.0378470133E+00
-2.0348850233E+00 -2.0319316312E+00 -2.0289867996E+00 -2.0260504914E+00
-2.0231226696E+00 -2.0202032976E+00 -2.0172923386E+00 -2.0143897566E+00