<UPF version="2.0.1"><PP_INFO>This pseudopotential file has been produced using the code
ONCVPSP (Optimized Norm-Conservinng Vanderbilt PSeudopotential)
scalar-relativistic version 3.3.0 08/16/2017 by D. R. Hamann
The code is available through a link at URL www.mat-simresearch.com.
Documentation with the package provides a full discription of the
input data below.
While it is not required under the terms of the GNU GPL, it is
suggested that you cite D. R. Hamann, Phys. Rev. B 88, 085117 (2013)
in any publication using these pseudopotentials.<PP_INPUTFILE>
# ATOM AND REFERENCE CONFIGURATION
# atsym z nc nv iexc psfile
Cl 17.00 3 2 -116133 upf
#
# n l f energy (Ha)
1 0 2.00
2 0 2.00
2 1 6.00
3 0 2.00
3 1 5.00
#
# PSEUDOPOTENTIAL AND OPTIMIZATION
# lmax
2
#
# l, rc, ep, ncon, nbas, qcut
0 1.55000 -0.75771 4 9 6.80000
1 1.35000 -0.31463 4 8 8.00000
2 1.75000 0.10000 4 9 6.80000
#
# LOCAL POTENTIAL
# lloc, lpopt, rc(5), dvloc0
4 5 1.30000 0.00000
#
# VANDERBILT-KLEINMAN-BYLANDER PROJECTORs
# l, nproj, debl
0 2 2.00000
1 2 2.00000
2 2 1.50000
#
# MODEL CORE CHARGE
# icmod, fcfact, rcfact
3 8.00000 1.23000
#
# LOG DERIVATIVE ANALYSIS
# epsh1, epsh2, depsh
-15.00 12.00 0.02
#
# OUTPUT GRID
# rlmax, drl
6.00 0.01
#
# TEST CONFIGURATIONS
# ncnf
0
# nvcnf
# n l f</PP_INPUTFILE></PP_INFO><PP_HEADER generated="Generated using ONCVPSP code by D. R. Hamann" author="anonymous" date="180301" comment="" element="Cl" pseudo_type="NC" relativistic="scalar" is_ultrasoft="F" is_paw="F" is_coulomb="F" has_so="F" has_wfc="F" has_gipaw="F" core_correction="T" functional="PBESOL" z_valence="    7.00" total_psenergy="  -2.99004862098E+01" rho_cutoff="   1.02700000000E+01" l_max="2" l_local="-1" mesh_size="  1028" number_of_wfc="2" number_of_proj="6"/><PP_MESH><PP_R type="real" size="1028" columns="8">
0.0000 0.0100 0.0200 0.0300 0.0400 0.0500 0.0600 0.0700
0.0800 0.0900 0.1000 0.1100 0.1200 0.1300 0.1400 0.1500
0.1600 0.1700 0.1800 0.1900 0.2000 0.2100 0.2200 0.2300
0.2400 0.2500 0.2600 0.2700 0.2800 0.2900 0.3000 0.3100
0.3200 0.3300 0.3400 0.3500 0.3600 0.3700 0.3800 0.3900
0.4000 0.4100 0.4200 0.4300 0.4400 0.4500 0.4600 0.4700
0.4800 0.4900 0.5000 0.5100 0.5200 0.5300 0.5400 0.5500
0.5600 0.5700 0.5800 0.5900 0.6000 0.6100 0.6200 0.6300
0.6400 0.6500 0.6600 0.6700 0.6800 0.6900 0.7000 0.7100
0.7200 0.7300 0.7400 0.7500 0.7600 0.7700 0.7800 0.7900
0.8000 0.8100 0.8200 0.8300 0.8400 0.8500 0.8600 0.8700
0.8800 0.8900 0.9000 0.9100 0.9200 0.9300 0.9400 0.9500
0.9600 0.9700 0.9800 0.9900 1.0000 1.0100 1.0200 1.0300
1.0400 1.0500 1.0600 1.0700 1.0800 1.0900 1.1000 1.1100
1.1200 1.1300 1.1400 1.1500 1.1600 1.1700 1.1800 1.1900
1.2000 1.2100 1.2200 1.2300 1.2400 1.2500 1.2600 1.2700
1.2800 1.2900 1.3000 1.3100 1.3200 1.3300 1.3400 1.3500
1.3600 1.3700 1.3800 1.3900 1.4000 1.4100 1.4200 1.4300
1.4400 1.4500 1.4600 1.4700 1.4800 1.4900 1.5000 1.5100
1.5200 1.5300 1.5400 1.5500 1.5600 1.5700 1.5800 1.5900
1.6000 1.6100 1.6200 1.6300 1.6400 1.6500 1.6600 1.6700
1.6800 1.6900 1.7000 1.7100 1.7200 1.7300 1.7400 1.7500
1.7600 1.7700 1.7800 1.7900 1.8000 1.8100 1.8200 1.8300
1.8400 1.8500 1.8600 1.8700 1.8800 1.8900 1.9000 1.9100
1.9200 1.9300 1.9400 1.9500 1.9600 1.9700 1.9800 1.9900
2.0000 2.0100 2.0200 2.0300 2.0400 2.0500 2.0600 2.0700
2.0800 2.0900 2.1000 2.1100 2.1200 2.1300 2.1400 2.1500
2.1600 2.1700 2.1800 2.1900 2.2000 2.2100 2.2200 2.2300
2.2400 2.2500 2.2600 2.2700 2.2800 2.2900 2.3000 2.3100
2.3200 2.3300 2.3400 2.3500 2.3600 2.3700 2.3800 2.3900
2.4000 2.4100 2.4200 2.4300 2.4400 2.4500 2.4600 2.4700
2.4800 2.4900 2.5000 2.5100 2.5200 2.5300 2.5400 2.5500
2.5600 2.5700 2.5800 2.5900 2.6000 2.6100 2.6200 2.6300
2.6400 2.6500 2.6600 2.6700 2.6800 2.6900 2.7000 2.7100
2.7200 2.7300 2.7400 2.7500 2.7600 2.7700 2.7800 2.7900
2.8000 2.8100 2.8200 2.8300 2.8400 2.8500 2.8600 2.8700
2.8800 2.8900 2.9000 2.9100 2.9200 2.9300 2.9400 2.9500
2.9600 2.9700 2.9800 2.9900 3.0000 3.0100 3.0200 3.0300
3.0400 3.0500 3.0600 3.0700 3.0800 3.0900 3.1000 3.1100
3.1200 3.1300 3.1400 3.1500 3.1600 3.1700 3.1800 3.1900
3.2000 3.2100 3.2200 3.2300 3.2400 3.2500 3.2600 3.2700
3.2800 3.2900 3.3000 3.3100 3.3200 3.3300 3.3400 3.3500
3.3600 3.3700 3.3800 3.3900 3.4000 3.4100 3.4200 3.4300
3.4400 3.4500 3.4600 3.4700 3.4800 3.4900 3.5000 3.5100
3.5200 3.5300 3.5400 3.5500 3.5600 3.5700 3.5800 3.5900
3.6000 3.6100 3.6200 3.6300 3.6400 3.6500 3.6600 3.6700
3.6800 3.6900 3.7000 3.7100 3.7200 3.7300 3.7400 3.7500
3.7600 3.7700 3.7800 3.7900 3.8000 3.8100 3.8200 3.8300
3.8400 3.8500 3.8600 3.8700 3.8800 3.8900 3.9000 3.9100
3.9200 3.9300 3.9400 3.9500 3.9600 3.9700 3.9800 3.9900
4.0000 4.0100 4.0200 4.0300 4.0400 4.0500 4.0600 4.0700
4.0800 4.0900 4.1000 4.1100 4.1200 4.1300 4.1400 4.1500
4.1600 4.1700 4.1800 4.1900 4.2000 4.2100 4.2200 4.2300
4.2400 4.2500 4.2600 4.2700 4.2800 4.2900 4.3000 4.3100
4.3200 4.3300 4.3400 4.3500 4.3600 4.3700 4.3800 4.3900
4.4000 4.4100 4.4200 4.4300 4.4400 4.4500 4.4600 4.4700
4.4800 4.4900 4.5000 4.5100 4.5200 4.5300 4.5400 4.5500
4.5600 4.5700 4.5800 4.5900 4.6000 4.6100 4.6200 4.6300
4.6400 4.6500 4.6600 4.6700 4.6800 4.6900 4.7000 4.7100
4.7200 4.7300 4.7400 4.7500 4.7600 4.7700 4.7800 4.7900
4.8000 4.8100 4.8200 4.8300 4.8400 4.8500 4.8600 4.8700
4.8800 4.8900 4.9000 4.9100 4.9200 4.9300 4.9400 4.9500
4.9600 4.9700 4.9800 4.9900 5.0000 5.0100 5.0200 5.0300
5.0400 5.0500 5.0600 5.0700 5.0800 5.0900 5.1000 5.1100
5.1200 5.1300 5.1400 5.1500 5.1600 5.1700 5.1800 5.1900
5.2000 5.2100 5.2200 5.2300 5.2400 5.2500 5.2600 5.2700
5.2800 5.2900 5.3000 5.3100 5.3200 5.3300 5.3400 5.3500
5.3600 5.3700 5.3800 5.3900 5.4000 5.4100 5.4200 5.4300
5.4400 5.4500 5.4600 5.4700 5.4800 5.4900 5.5000 5.5100
5.5200 5.5300 5.5400 5.5500 5.5600 5.5700 5.5800 5.5900
5.6000 5.6100 5.6200 5.6300 5.6400 5.6500 5.6600 5.6700
5.6800 5.6900 5.7000 5.7100 5.7200 5.7300 5.7400 5.7500
5.7600 5.7700 5.7800 5.7900 5.8000 5.8100 5.8200 5.8300
5.8400 5.8500 5.8600 5.8700 5.8800 5.8900 5.9000 5.9100
5.9200 5.9300 5.9400 5.9500 5.9600 5.9700 5.9800 5.9900
6.0000 6.0100 6.0200 6.0300 6.0400 6.0500 6.0600 6.0700
6.0800 6.0900 6.1000 6.1100 6.1200 6.1300 6.1400 6.1500
6.1600 6.1700 6.1800 6.1900 6.2000 6.2100 6.2200 6.2300
6.2400 6.2500 6.2600 6.2700 6.2800 6.2900 6.3000 6.3100
6.3200 6.3300 6.3400 6.3500 6.3600 6.3700 6.3800 6.3900
6.4000 6.4100 6.4200 6.4300 6.4400 6.4500 6.4600 6.4700
6.4800 6.4900 6.5000 6.5100 6.5200 6.5300 6.5400 6.5500
6.5600 6.5700 6.5800 6.5900 6.6000 6.6100 6.6200 6.6300
6.6400 6.6500 6.6600 6.6700 6.6800 6.6900 6.7000 6.7100
6.7200 6.7300 6.7400 6.7500 6.7600 6.7700 6.7800 6.7900
6.8000 6.8100 6.8200 6.8300 6.8400 6.8500 6.8600 6.8700
6.8800 6.8900 6.9000 6.9100 6.9200 6.9300 6.9400 6.9500
6.9600 6.9700 6.9800 6.9900 7.0000 7.0100 7.0200 7.0300
7.0400 7.0500 7.0600 7.0700 7.0800 7.0900 7.1000 7.1100
7.1200 7.1300 7.1400 7.1500 7.1600 7.1700 7.1800 7.1900
7.2000 7.2100 7.2200 7.2300 7.2400 7.2500 7.2600 7.2700
7.2800 7.2900 7.3000 7.3100 7.3200 7.3300 7.3400 7.3500
7.3600 7.3700 7.3800 7.3900 7.4000 7.4100 7.4200 7.4300
7.4400 7.4500 7.4600 7.4700 7.4800 7.4900 7.5000 7.5100
7.5200 7.5300 7.5400 7.5500 7.5600 7.5700 7.5800 7.5900
7.6000 7.6100 7.6200 7.6300 7.6400 7.6500 7.6600 7.6700
7.6800 7.6900 7.7000 7.7100 7.7200 7.7300 7.7400 7.7500
7.7600 7.7700 7.7800 7.7900 7.8000 7.8100 7.8200 7.8300
7.8400 7.8500 7.8600 7.8700 7.8800 7.8900 7.9000 7.9100
7.9200 7.9300 7.9400 7.9500 7.9600 7.9700 7.9800 7.9900
8.0000 8.0100 8.0200 8.0300 8.0400 8.0500 8.0600 8.0700
8.0800 8.0900 8.1000 8.1100 8.1200 8.1300 8.1400 8.1500
8.1600 8.1700 8.1800 8.1900 8.2000 8.2100 8.2200 8.2300
8.2400 8.2500 8.2600 8.2700 8.2800 8.2900 8.3000 8.3100
8.3200 8.3300 8.3400 8.3500 8.3600 8.3700 8.3800 8.3900
8.4000 8.4100 8.4200 8.4300 8.4400 8.4500 8.4600 8.4700
8.4800 8.4900 8.5000 8.5100 8.5200 8.5300 8.5400 8.5500
8.5600 8.5700 8.5800 8.5900 8.6000 8.6100 8.6200 8.6300
8.6400 8.6500 8.6600 8.6700 8.6800 8.6900 8.7000 8.7100
8.7200 8.7300 8.7400 8.7500 8.7600 8.7700 8.7800 8.7900
8.8000 8.8100 8.8200 8.8300 8.8400 8.8500 8.8600 8.8700
8.8800 8.8900 8.9000 8.9100 8.9200 8.9300 8.9400 8.9500
8.9600 8.9700 8.9800 8.9900 9.0000 9.0100 9.0200 9.0300
9.0400 9.0500 9.0600 9.0700 9.0800 9.0900 9.1000 9.1100
9.1200 9.1300 9.1400 9.1500 9.1600 9.1700 9.1800 9.1900
9.2000 9.2100 9.2200 9.2300 9.2400 9.2500 9.2600 9.2700
9.2800 9.2900 9.3000 9.3100 9.3200 9.3300 9.3400 9.3500
9.3600 9.3700 9.3800 9.3900 9.4000 9.4100 9.4200 9.4300
9.4400 9.4500 9.4600 9.4700 9.4800 9.4900 9.5000 9.5100
9.5200 9.5300 9.5400 9.5500 9.5600 9.5700 9.5800 9.5900
9.6000 9.6100 9.6200 9.6300 9.6400 9.6500 9.6600 9.6700
9.6800 9.6900 9.7000 9.7100 9.7200 9.7300 9.7400 9.7500
9.7600 9.7700 9.7800 9.7900 9.8000 9.8100 9.8200 9.8300
9.8400 9.8500 9.8600 9.8700 9.8800 9.8900 9.9000 9.9100
9.9200 9.9300 9.9400 9.9500 9.9600 9.9700 9.9800 9.9900
10.0000 10.0100 10.0200 10.0300 10.0400 10.0500 10.0600 10.0700
10.0800 10.0900 10.1000 10.1100 10.1200 10.1300 10.1400 10.1500
10.1600 10.1700 10.1800 10.1900 10.2000 10.2100 10.2200 10.2300
10.2400 10.2500 10.2600 10.2700</PP_R><PP_RAB type="real" size="1028" columns="8">
0.0100 0.0100 0.0100 0.0100 0.0100 0.0100 0.0100 0.0100
0.0100 0.0100 0.0100 0.0100 0.0100 0.0100 0.0100 0.0100
0.0100 0.0100 0.0100 0.0100 0.0100 0.0100 0.0100 0.0100
0.0100 0.0100 0.0100 0.0100 0.0100 0.0100 0.0100 0.0100
0.0100 0.0100 0.0100 0.0100 0.0100 0.0100 0.0100 0.0100
0.0100 0.0100 0.0100 0.0100 0.0100 0.0100 0.0100 0.0100
0.0100 0.0100 0.0100 0.0100 0.0100 0.0100 0.0100 0.0100
0.0100 0.0100 0.0100 0.0100 0.0100 0.0100 0.0100 0.0100
0.0100 0.0100 0.0100 0.0100 0.0100 0.0100 0.0100 0.0100
0.0100 0.0100 0.0100 0.0100 0.0100 0.0100 0.0100 0.0100
0.0100 0.0100 0.0100 0.0100 0.0100 0.0100 0.0100 0.0100
0.0100 0.0100 0.0100 0.0100 0.0100 0.0100 0.0100 0.0100
0.0100 0.0100 0.0100 0.0100 0.0100 0.0100 0.0100 0.0100
0.0100 0.0100 0.0100 0.0100 0.0100 0.0100 0.0100 0.0100
0.0100 0.0100 0.0100 0.0100 0.0100 0.0100 0.0100 0.0100
0.0100 0.0100 0.0100 0.0100 0.0100 0.0100 0.0100 0.0100
0.0100 0.0100 0.0100 0.0100 0.0100 0.0100 0.0100 0.0100
0.0100 0.0100 0.0100 0.0100 0.0100 0.0100 0.0100 0.0100
0.0100 0.0100 0.0100 0.0100 0.0100 0.0100 0.0100 0.0100
0.0100 0.0100 0.0100 0.0100 0.0100 0.0100 0.0100 0.0100
0.0100 0.0100 0.0100 0.0100 0.0100 0.0100 0.0100 0.0100
0.0100 0.0100 0.0100 0.0100 0.0100 0.0100 0.0100 0.0100
0.0100 0.0100 0.0100 0.0100 0.0100 0.0100 0.0100 0.0100
0.0100 0.0100 0.0100 0.0100 0.0100 0.0100 0.0100 0.0100
0.0100 0.0100 0.0100 0.0100 0.0100 0.0100 0.0100 0.0100
0.0100 0.0100 0.0100 0.0100 0.0100 0.0100 0.0100 0.0100
0.0100 0.0100 0.0100 0.0100 0.0100 0.0100 0.0100 0.0100
0.0100 0.0100 0.0100 0.0100 0.0100 0.0100 0.0100 0.0100
0.0100 0.0100 0.0100 0.0100 0.0100 0.0100 0.0100 0.0100
0.0100 0.0100 0.0100 0.0100 0.0100 0.0100 0.0100 0.0100
0.0100 0.0100 0.0100 0.0100 0.0100 0.0100 0.0100 0.0100
0.0100 0.0100 0.0100 0.0100 0.0100 0.0100 0.0100 0.0100
0.0100 0.0100 0.0100 0.0100 0.0100 0.0100 0.0100 0.0100
0.0100 0.0100 0.0100 0.0100 0.0100 0.0100 0.0100 0.0100
0.0100 0.0100 0.0100 0.0100 0.0100 0.0100 0.0100 0.0100
0.0100 0.0100 0.0100 0.0100 0.0100 0.0100 0.0100 0.0100
0.0100 0.0100 0.0100 0.0100 0.0100 0.0100 0.0100 0.0100
0.0100 0.0100 0.0100 0.0100 0.0100 0.0100 0.0100 0.0100
0.0100 0.0100 0.0100 0.0100 0.0100 0.0100 0.0100 0.0100
0.0100 0.0100 0.0100 0.0100 0.0100 0.0100 0.0100 0.0100
0.0100 0.0100 0.0100 0.0100 0.0100 0.0100 0.0100 0.0100
0.0100 0.0100 0.0100 0.0100 0.0100 0.0100 0.0100 0.0100
0.0100 0.0100 0.0100 0.0100 0.0100 0.0100 0.0100 0.0100
0.0100 0.0100 0.0100 0.0100 0.0100 0.0100 0.0100 0.0100
0.0100 0.0100 0.0100 0.0100 0.0100 0.0100 0.0100 0.0100
0.0100 0.0100 0.0100 0.0100 0.0100 0.0100 0.0100 0.0100
0.0100 0.0100 0.0100 0.0100 0.0100 0.0100 0.0100 0.0100
0.0100 0.0100 0.0100 0.0100 0.0100 0.0100 0.0100 0.0100
0.0100 0.0100 0.0100 0.0100 0.0100 0.0100 0.0100 0.0100
0.0100 0.0100 0.0100 0.0100 0.0100 0.0100 0.0100 0.0100
0.0100 0.0100 0.0100 0.0100 0.0100 0.0100 0.0100 0.0100
0.0100 0.0100 0.0100 0.0100 0.0100 0.0100 0.0100 0.0100
0.0100 0.0100 0.0100 0.0100 0.0100 0.0100 0.0100 0.0100
0.0100 0.0100 0.0100 0.0100 0.0100 0.0100 0.0100 0.0100
0.0100 0.0100 0.0100 0.0100 0.0100 0.0100 0.0100 0.0100
0.0100 0.0100 0.0100 0.0100 0.0100 0.0100 0.0100 0.0100
0.0100 0.0100 0.0100 0.0100 0.0100 0.0100 0.0100 0.0100
0.0100 0.0100 0.0100 0.0100 0.0100 0.0100 0.0100 0.0100
0.0100 0.0100 0.0100 0.0100 0.0100 0.0100 0.0100 0.0100
0.0100 0.0100 0.0100 0.0100 0.0100 0.0100 0.0100 0.0100
0.0100 0.0100 0.0100 0.0100 0.0100 0.0100 0.0100 0.0100
0.0100 0.0100 0.0100 0.0100 0.0100 0.0100 0.0100 0.0100
0.0100 0.0100 0.0100 0.0100 0.0100 0.0100 0.0100 0.0100
0.0100 0.0100 0.0100 0.0100 0.0100 0.0100 0.0100 0.0100
0.0100 0.0100 0.0100 0.0100 0.0100 0.0100 0.0100 0.0100
0.0100 0.0100 0.0100 0.0100 0.0100 0.0100 0.0100 0.0100
0.0100 0.0100 0.0100 0.0100 0.0100 0.0100 0.0100 0.0100
0.0100 0.0100 0.0100 0.0100 0.0100 0.0100 0.0100 0.0100
0.0100 0.0100 0.0100 0.0100 0.0100 0.0100 0.0100 0.0100
0.0100 0.0100 0.0100 0.0100 0.0100 0.0100 0.0100 0.0100
0.0100 0.0100 0.0100 0.0100 0.0100 0.0100 0.0100 0.0100
0.0100 0.0100 0.0100 0.0100 0.0100 0.0100 0.0100 0.0100
0.0100 0.0100 0.0100 0.0100 0.0100 0.0100 0.0100 0.0100
0.0100 0.0100 0.0100 0.0100 0.0100 0.0100 0.0100 0.0100
0.0100 0.0100 0.0100 0.0100 0.0100 0.0100 0.0100 0.0100
0.0100 0.0100 0.0100 0.0100 0.0100 0.0100 0.0100 0.0100
0.0100 0.0100 0.0100 0.0100 0.0100 0.0100 0.0100 0.0100
0.0100 0.0100 0.0100 0.0100 0.0100 0.0100 0.0100 0.0100
0.0100 0.0100 0.0100 0.0100 0.0100 0.0100 0.0100 0.0100
0.0100 0.0100 0.0100 0.0100 0.0100 0.0100 0.0100 0.0100
0.0100 0.0100 0.0100 0.0100 0.0100 0.0100 0.0100 0.0100
0.0100 0.0100 0.0100 0.0100 0.0100 0.0100 0.0100 0.0100
0.0100 0.0100 0.0100 0.0100 0.0100 0.0100 0.0100 0.0100
0.0100 0.0100 0.0100 0.0100 0.0100 0.0100 0.0100 0.0100
0.0100 0.0100 0.0100 0.0100 0.0100 0.0100 0.0100 0.0100
0.0100 0.0100 0.0100 0.0100 0.0100 0.0100 0.0100 0.0100
0.0100 0.0100 0.0100 0.0100 0.0100 0.0100 0.0100 0.0100
0.0100 0.0100 0.0100 0.0100 0.0100 0.0100 0.0100 0.0100
0.0100 0.0100 0.0100 0.0100 0.0100 0.0100 0.0100 0.0100
0.0100 0.0100 0.0100 0.0100 0.0100 0.0100 0.0100 0.0100
0.0100 0.0100 0.0100 0.0100 0.0100 0.0100 0.0100 0.0100
0.0100 0.0100 0.0100 0.0100 0.0100 0.0100 0.0100 0.0100
0.0100 0.0100 0.0100 0.0100 0.0100 0.0100 0.0100 0.0100
0.0100 0.0100 0.0100 0.0100 0.0100 0.0100 0.0100 0.0100
0.0100 0.0100 0.0100 0.0100 0.0100 0.0100 0.0100 0.0100
0.0100 0.0100 0.0100 0.0100 0.0100 0.0100 0.0100 0.0100
0.0100 0.0100 0.0100 0.0100 0.0100 0.0100 0.0100 0.0100
0.0100 0.0100 0.0100 0.0100 0.0100 0.0100 0.0100 0.0100
0.0100 0.0100 0.0100 0.0100 0.0100 0.0100 0.0100 0.0100
0.0100 0.0100 0.0100 0.0100 0.0100 0.0100 0.0100 0.0100
0.0100 0.0100 0.0100 0.0100 0.0100 0.0100 0.0100 0.0100
0.0100 0.0100 0.0100 0.0100 0.0100 0.0100 0.0100 0.0100
0.0100 0.0100 0.0100 0.0100 0.0100 0.0100 0.0100 0.0100
0.0100 0.0100 0.0100 0.0100 0.0100 0.0100 0.0100 0.0100
0.0100 0.0100 0.0100 0.0100 0.0100 0.0100 0.0100 0.0100
0.0100 0.0100 0.0100 0.0100 0.0100 0.0100 0.0100 0.0100
0.0100 0.0100 0.0100 0.0100 0.0100 0.0100 0.0100 0.0100
0.0100 0.0100 0.0100 0.0100 0.0100 0.0100 0.0100 0.0100
0.0100 0.0100 0.0100 0.0100 0.0100 0.0100 0.0100 0.0100
0.0100 0.0100 0.0100 0.0100 0.0100 0.0100 0.0100 0.0100
0.0100 0.0100 0.0100 0.0100 0.0100 0.0100 0.0100 0.0100
0.0100 0.0100 0.0100 0.0100 0.0100 0.0100 0.0100 0.0100
0.0100 0.0100 0.0100 0.0100 0.0100 0.0100 0.0100 0.0100
0.0100 0.0100 0.0100 0.0100 0.0100 0.0100 0.0100 0.0100
0.0100 0.0100 0.0100 0.0100 0.0100 0.0100 0.0100 0.0100
0.0100 0.0100 0.0100 0.0100 0.0100 0.0100 0.0100 0.0100
0.0100 0.0100 0.0100 0.0100 0.0100 0.0100 0.0100 0.0100
0.0100 0.0100 0.0100 0.0100 0.0100 0.0100 0.0100 0.0100
0.0100 0.0100 0.0100 0.0100 0.0100 0.0100 0.0100 0.0100
0.0100 0.0100 0.0100 0.0100 0.0100 0.0100 0.0100 0.0100
0.0100 0.0100 0.0100 0.0100 0.0100 0.0100 0.0100 0.0100
0.0100 0.0100 0.0100 0.0100 0.0100 0.0100 0.0100 0.0100
0.0100 0.0100 0.0100 0.0100 0.0100 0.0100 0.0100 0.0100
0.0100 0.0100 0.0100 0.0100 0.0100 0.0100 0.0100 0.0100
0.0100 0.0100 0.0100 0.0100 0.0100 0.0100 0.0100 0.0100
0.0100 0.0100 0.0100 0.0100 0.0100 0.0100 0.0100 0.0100
0.0100 0.0100 0.0100 0.0100 0.0100 0.0100 0.0100 0.0100
0.0100 0.0100 0.0100 0.0100 0.0100 0.0100 0.0100 0.0100
0.0100 0.0100 0.0100 0.0100</PP_RAB></PP_MESH><PP_LOCAL type="real" size="1028" columns="4">
-2.2149687905E+01 -2.2148543121E+01 -2.2145109364E+01 -2.2139388435E+01
-2.2131383333E+01 -2.2121098242E+01 -2.2108538526E+01 -2.2093710715E+01
-2.2076622493E+01 -2.2057282676E+01 -2.2035701194E+01 -2.2011889073E+01
-2.1985858406E+01 -2.1957622332E+01 -2.1927195008E+01 -2.1894591581E+01
-2.1859828158E+01 -2.1822921780E+01 -2.1783890386E+01 -2.1742752785E+01
-2.1699528621E+01 -2.1654238345E+01 -2.1606903180E+01 -2.1557545087E+01
-2.1506186734E+01 -2.1452851460E+01 -2.1397563245E+01 -2.1340346675E+01
-2.1281226909E+01 -2.1220229643E+01 -2.1157381081E+01 -2.1092707896E+01
-2.1026237200E+01 -2.0957996507E+01 -2.0888013699E+01 -2.0816316996E+01
-2.0742934912E+01 -2.0667896229E+01 -2.0591229956E+01 -2.0512965298E+01
-2.0433131614E+01 -2.0351758389E+01 -2.0268875193E+01 -2.0184511649E+01
-2.0098697395E+01 -2.0011462050E+01 -1.9922835183E+01 -1.9832846274E+01
-1.9741524688E+01 -1.9648899638E+01 -1.9555000159E+01 -1.9459855079E+01
-1.9363492992E+01 -1.9265942235E+01 -1.9167230868E+01 -1.9067386650E+01
-1.8966437029E+01 -1.8864409124E+01 -1.8761329720E+01 -1.8657225256E+01
-1.8552121828E+01 -1.8446045184E+01 -1.8339020736E+01 -1.8231073564E+01
-1.8122228436E+01 -1.8012509823E+01 -1.7901941932E+01 -1.7790548738E+01
-1.7678354031E+01 -1.7565381470E+01 -1.7451654650E+01 -1.7337197194E+01
-1.7222032846E+01 -1.7106185601E+01 -1.6989679846E+01 -1.6872540533E+01
-1.6754793373E+01 -1.6636465058E+01 -1.6517583504E+01 -1.6398178124E+01
-1.6278280107E+01 -1.6157922710E+01 -1.6037141554E+01 -1.5915974898E+01
-1.5794463898E+01 -1.5672652819E+01 -1.5550589193E+01 -1.5428323911E+01
-1.5305911227E+01 -1.5183408674E+01 -1.5060876884E+01 -1.4938379301E+01
-1.4815981808E+01 -1.4693752265E+01 -1.4571759969E+01 -1.4450075078E+01
-1.4328767987E+01 -1.4207908709E+01 -1.4087566267E+01 -1.3967808130E+01
-1.3848699698E+01 -1.3730303867E+01 -1.3612680669E+01 -1.3495886998E+01
-1.3379976427E+01 -1.3264999095E+01 -1.3151001673E+01 -1.3038027389E+01
-1.2926116103E+01 -1.2815304414E+01 -1.2705625794E+01 -1.2597110734E+01
-1.2489786894E+01 -1.2383679244E+01 -1.2278810199E+01 -1.2175199730E+01
-1.2072865460E+01 -1.1971822741E+01 -1.1872084697E+01 -1.1773662258E+01
-1.1676564157E+01 -1.1580796918E+01 -1.1486364813E+01 -1.1393269805E+01
-1.1301511475E+01 -1.1211086924E+01 -1.1121990672E+01 -1.1034214536E+01
-1.0947747501E+01 -1.0862575633E+01 -1.0778681829E+01 -1.0696045551E+01
-1.0614644725E+01 -1.0534456843E+01 -1.0455460160E+01 -1.0377631349E+01
-1.0300944727E+01 -1.0225373102E+01 -1.0150890471E+01 -1.0077474742E+01
-1.0005106343E+01 -9.9337670710E+00 -9.8634377473E+00 -9.7940988636E+00
-9.7257313340E+00 -9.6583164613E+00 -9.5918360000E+00 -9.5262717705E+00
-9.4616057368E+00 -9.3978201709E+00 -9.3348975838E+00 -9.2728207375E+00
-9.2115725481E+00 -9.1511362052E+00 -9.0914952777E+00 -9.0326341912E+00
-8.9745390667E+00 -8.9171973051E+00 -8.8605974170E+00 -8.8047277648E+00
-8.7495753311E+00 -8.6951264062E+00 -8.6413668390E+00 -8.5882827789E+00
-8.5358612387E+00 -8.4840895335E+00 -8.4329551343E+00 -8.3824456999E+00
-8.3325490188E+00 -8.2832531594E+00 -8.2345465181E+00 -8.1864177367E+00
-8.1388556937E+00 -8.0918495351E+00 -8.0453886769E+00 -7.9994627997E+00
-7.9540618494E+00 -7.9091760377E+00 -7.8647958402E+00 -7.8209119949E+00
-7.7775154994E+00 -7.7345976074E+00 -7.6921498252E+00 -7.6501639068E+00
-7.6086318490E+00 -7.5675458855E+00 -7.5268984813E+00 -7.4866823257E+00
-7.4468903255E+00 -7.4075155979E+00 -7.3685514627E+00 -7.3299914347E+00
-7.2918292155E+00 -7.2540586857E+00 -7.2166738965E+00 -7.1796690613E+00
-7.1430385480E+00 -7.1067768704E+00 -7.0708786802E+00 -7.0353387594E+00
-7.0001520125E+00 -6.9653134589E+00 -6.9308182261E+00 -6.8966615424E+00
-6.8628387307E+00 -6.8293452022E+00 -6.7961764510E+00 -6.7633280479E+00
-6.7307956365E+00 -6.6985749279E+00 -6.6666616971E+00 -6.6350517789E+00
-6.6037410653E+00 -6.5727255023E+00 -6.5420010877E+00 -6.5115638689E+00
-6.4814099421E+00 -6.4515354503E+00 -6.4219365828E+00 -6.3926095749E+00
-6.3635507076E+00 -6.3347563075E+00 -6.3062227473E+00 -6.2779464464E+00
-6.2499238711E+00 -6.2221515364E+00 -6.1946260058E+00 -6.1673438933E+00
-6.1403018637E+00 -6.1134966341E+00 -6.0869249751E+00 -6.0605837111E+00
-6.0344697218E+00 -6.0085799431E+00 -5.9829113670E+00 -5.9574610432E+00
-5.9322260788E+00 -5.9072036387E+00 -5.8823909457E+00 -5.8577852802E+00
-5.8333839801E+00 -5.8091844402E+00 -5.7851841112E+00 -5.7613804993E+00
-5.7377711647E+00 -5.7143537206E+00 -5.6911258315E+00 -5.6680852120E+00
-5.6452296251E+00 -5.6225568799E+00 -5.6000648305E+00 -5.5777513734E+00
-5.5556144461E+00 -5.5336520245E+00 -5.5118621212E+00 -5.4902427836E+00
-5.4687920915E+00 -5.4475081557E+00 -5.4263891158E+00 -5.4054331385E+00
-5.3846384159E+00 -5.3640031642E+00 -5.3435256221E+00 -5.3232040492E+00
-5.3030367257E+00 -5.2830219505E+00 -5.2631580410E+00 -5.2434433320E+00
-5.2238761756E+00 -5.2044549403E+00 -5.1851780111E+00 -5.1660437894E+00
-5.1470506928E+00 -5.1281971551E+00 -5.1094816272E+00 -5.0909025763E+00
-5.0724584873E+00 -5.0541478625E+00 -5.0359692224E+00 -5.0179211061E+00
-5.0000020715E+00 -4.9822106963E+00 -4.9645455784E+00 -4.9470053359E+00
-4.9295886083E+00 -4.9122940541E+00 -4.8951203533E+00 -4.8780662087E+00
-4.8611303452E+00 -4.8443115088E+00 -4.8276084698E+00 -4.8110200035E+00
-4.7945449539E+00 -4.7781821671E+00 -4.7619305146E+00 -4.7457888397E+00
-4.7297559337E+00 -4.7138306324E+00 -4.6980117799E+00 -4.6822983299E+00
-4.6666892727E+00 -4.6511836300E+00 -4.6357804854E+00 -4.6204790320E+00
-4.6052784367E+00 -4.5901779155E+00 -4.5751764930E+00 -4.5602731493E+00
-4.5454668583E+00 -4.5307565612E+00 -4.5161412761E+00 -4.5016200118E+00
-4.4871917903E+00 -4.4728556807E+00 -4.4586108275E+00 -4.4444563817E+00
-4.4303915342E+00 -4.4164154423E+00 -4.4025272591E+00 -4.3887261554E+00
-4.3750113022E+00 -4.3613818985E+00 -4.3478371494E+00 -4.3343762687E+00
-4.3209984800E+00 -4.3077030161E+00 -4.2944891193E+00 -4.2813560414E+00
-4.2683030435E+00 -4.2553293951E+00 -4.2424343750E+00 -4.2296172705E+00
-4.2168773775E+00 -4.2042140004E+00 -4.1916264521E+00 -4.1791140534E+00
-4.1666761334E+00 -4.1543120290E+00 -4.1420210852E+00 -4.1298026545E+00
-4.1176560970E+00 -4.1055807805E+00 -4.0935760801E+00 -4.0816413781E+00
-4.0697760641E+00 -4.0579795348E+00 -4.0462511937E+00 -4.0345904513E+00
-4.0229967250E+00 -4.0114694386E+00 -4.0000080227E+00 -3.9886119143E+00
-3.9772805568E+00 -3.9660134000E+00 -3.9548098997E+00 -3.9436695180E+00
-3.9325917232E+00 -3.9215759891E+00 -3.9106217958E+00 -3.8997286291E+00
-3.8888959803E+00 -3.8781233466E+00 -3.8674102307E+00 -3.8567561406E+00
-3.8461605899E+00 -3.8356230974E+00 -3.8251431873E+00 -3.8147203890E+00
-3.8043542367E+00 -3.7940442701E+00 -3.7837900335E+00 -3.7735910763E+00
-3.7634469527E+00 -3.7533572217E+00 -3.7433214471E+00 -3.7333391971E+00
-3.7234100448E+00 -3.7135335675E+00 -3.7037093474E+00 -3.6939369706E+00
-3.6842160280E+00 -3.6745461145E+00 -3.6649268295E+00 -3.6553577763E+00
-3.6458385626E+00 -3.6363687999E+00 -3.6269481040E+00 -3.6175760944E+00
-3.6082523948E+00 -3.5989766326E+00 -3.5897484391E+00 -3.5805674492E+00
-3.5714333017E+00 -3.5623456391E+00 -3.5533041075E+00 -3.5443083563E+00
-3.5353580389E+00 -3.5264528120E+00 -3.5175923355E+00 -3.5087762731E+00
-3.5000042917E+00 -3.4912760615E+00 -3.4825912560E+00 -3.4739495519E+00
-3.4653506291E+00 -3.4567941709E+00 -3.4482798633E+00 -3.4398073957E+00
-3.4313764604E+00 -3.4229867529E+00 -3.4146379714E+00 -3.4063298173E+00
-3.3980619946E+00 -3.3898342104E+00 -3.3816461746E+00 -3.3734975999E+00
-3.3653882016E+00 -3.3573176979E+00 -3.3492858097E+00 -3.3412922605E+00
-3.3333367763E+00 -3.3254190861E+00 -3.3175389211E+00 -3.3096960151E+00
-3.3018901045E+00 -3.2941209282E+00 -3.2863882275E+00 -3.2786917460E+00
-3.2710312300E+00 -3.2634064279E+00 -3.2558170906E+00 -3.2482629711E+00
-3.2407438250E+00 -3.2332594098E+00 -3.2258094855E+00 -3.2183938143E+00
-3.2110121604E+00 -3.2036642904E+00 -3.1963499727E+00 -3.1890689781E+00
-3.1818210795E+00 -3.1746060516E+00 -3.1674236713E+00 -3.1602737176E+00
-3.1531559714E+00 -3.1460702154E+00 -3.1390162346E+00 -3.1319938156E+00
-3.1250027471E+00 -3.1180428196E+00 -3.1111138255E+00 -3.1042155591E+00
-3.0973478163E+00 -3.0905103951E+00 -3.0837030950E+00 -3.0769257175E+00
-3.0701780657E+00 -3.0634599444E+00 -3.0567711602E+00 -3.0501115214E+00
-3.0434808378E+00 -3.0368789211E+00 -3.0303055844E+00 -3.0237606425E+00
-3.0172439118E+00 -3.0107552104E+00 -3.0042943578E+00 -2.9978611750E+00
-2.9914554848E+00 -2.9850771111E+00 -2.9787258797E+00 -2.9724016177E+00
-2.9661041536E+00 -2.9598333175E+00 -2.9535889408E+00 -2.9473708564E+00
-2.9411788987E+00 -2.9350129032E+00 -2.9288727070E+00 -2.9227581486E+00
-2.9166690677E+00 -2.9106053054E+00 -2.9045667041E+00 -2.8985531074E+00
-2.8925643605E+00 -2.8866003097E+00 -2.8806608023E+00 -2.8747456873E+00
-2.8688548147E+00 -2.8629880358E+00 -2.8571452031E+00 -2.8513261701E+00
-2.8455307919E+00 -2.8397589244E+00 -2.8340104249E+00 -2.8282851517E+00
-2.8225829645E+00 -2.8169037237E+00 -2.8112472911E+00 -2.8056135298E+00
-2.8000023035E+00 -2.7944134774E+00 -2.7888469175E+00 -2.7833024912E+00
-2.7777800666E+00 -2.7722795131E+00 -2.7668007008E+00 -2.7613435013E+00
-2.7559077869E+00 -2.7504934309E+00 -2.7451003077E+00 -2.7397282926E+00
-2.7343772620E+00 -2.7290470931E+00 -2.7237376641E+00 -2.7184488544E+00
-2.7131805438E+00 -2.7079326136E+00 -2.7027049457E+00 -2.6974974229E+00
-2.6923099291E+00 -2.6871423488E+00 -2.6819945677E+00 -2.6768664722E+00
-2.6717579495E+00 -2.6666688878E+00 -2.6615991762E+00 -2.6565487044E+00
-2.6515173632E+00 -2.6465050441E+00 -2.6415116393E+00 -2.6365370420E+00
-2.6315811462E+00 -2.6266438466E+00 -2.6217250388E+00 -2.6168246189E+00
-2.6119424842E+00 -2.6070785324E+00 -2.6022326622E+00 -2.5974047729E+00
-2.5925947647E+00 -2.5878025383E+00 -2.5830279953E+00 -2.5782710381E+00
-2.5735315697E+00 -2.5688094938E+00 -2.5641047148E+00 -2.5594171378E+00
-2.5547466688E+00 -2.5500932142E+00 -2.5454566811E+00 -2.5408369776E+00
-2.5362340120E+00 -2.5316476936E+00 -2.5270779323E+00 -2.5225246386E+00
-2.5179877235E+00 -2.5134670989E+00 -2.5089626773E+00 -2.5044743715E+00
-2.5000020954E+00 -2.4955457632E+00 -2.4911052897E+00 -2.4866805905E+00
-2.4822715817E+00 -2.4778781799E+00 -2.4735003025E+00 -2.4691378672E+00
-2.4647907926E+00 -2.4604589976E+00 -2.4561424019E+00 -2.4518409255E+00
-2.4475544892E+00 -2.4432830142E+00 -2.4390264224E+00 -2.4347846360E+00
-2.4305575780E+00 -2.4263451718E+00 -2.4221473413E+00 -2.4179640111E+00
-2.4137951060E+00 -2.4096405518E+00 -2.4055002742E+00 -2.4013742000E+00
-2.3972622561E+00 -2.3931643701E+00 -2.3890804700E+00 -2.3850104844E+00
-2.3809543421E+00 -2.3769119728E+00 -2.3728833064E+00 -2.3688682734E+00
-2.3648668045E+00 -2.3608788313E+00 -2.3569042856E+00 -2.3529430997E+00
-2.3489952062E+00 -2.3450605385E+00 -2.3411390302E+00 -2.3372306154E+00
-2.3333352285E+00 -2.3294528046E+00 -2.3255832791E+00 -2.3217265878E+00
-2.3178826670E+00 -2.3140514533E+00 -2.3102328838E+00 -2.3064268960E+00
-2.3026334279E+00 -2.2988524178E+00 -2.2950838044E+00 -2.2913275269E+00
-2.2875835247E+00 -2.2838517378E+00 -2.2801321066E+00 -2.2764245716E+00
-2.2727290741E+00 -2.2690455555E+00 -2.2653739576E+00 -2.2617142227E+00
-2.2580662933E+00 -2.2544301125E+00 -2.2508056235E+00 -2.2471927701E+00
-2.2435914963E+00 -2.2400017466E+00 -2.2364234656E+00 -2.2328565987E+00
-2.2293010911E+00 -2.2257568888E+00 -2.2222239379E+00 -2.2187021849E+00
-2.2151915766E+00 -2.2116920604E+00 -2.2082035835E+00 -2.2047260940E+00
-2.2012595399E+00 -2.1978038698E+00 -2.1943590325E+00 -2.1909249772E+00
-2.1875016532E+00 -2.1840890105E+00 -2.1806869989E+00 -2.1772955691E+00
-2.1739146716E+00 -2.1705442575E+00 -2.1671842781E+00 -2.1638346850E+00
-2.1604954301E+00 -2.1571664657E+00 -2.1538477443E+00 -2.1505392185E+00
-2.1472408416E+00 -2.1439525670E+00 -2.1406743482E+00 -2.1374061392E+00
-2.1341478942E+00 -2.1308995678E+00 -2.1276611147E+00 -2.1244324899E+00
-2.1212136489E+00 -2.1180045471E+00 -2.1148051405E+00 -2.1116153852E+00
-2.1084352376E+00 -2.1052646543E+00 -2.1021035923E+00 -2.0989520087E+00
-2.0958098610E+00 -2.0926771068E+00 -2.0895537042E+00 -2.0864396112E+00
-2.0833347863E+00 -2.0802391883E+00 -2.0771527760E+00 -2.0740755086E+00
-2.0710073455E+00 -2.0679482464E+00 -2.0648981712E+00 -2.0618570801E+00
-2.0588249333E+00 -2.0558016915E+00 -2.0527873154E+00 -2.0497817663E+00
-2.0467850053E+00 -2.0437969940E+00 -2.0408176940E+00 -2.0378470674E+00
-2.0348850764E+00 -2.0319316833E+00 -2.0289868507E+00 -2.0260505415E+00
-2.0231227188E+00 -2.0202033458E+00 -2.0172923859E+00 -2.0143898030E+00
-2.0114955607E+00 -2.0086096233E+00 -2.0057319551E+00 -2.0028625206E+00
-2.0000012844E+00 -1.9971482115E+00 -1.9943032671E+00 -1.9914664163E+00
-1.9886376248E+00 -1.9858168583E+00 -1.9830040825E+00 -1.9801992637E+00
-1.9774023682E+00 -1.9746133623E+00 -1.9718322128E+00 -1.9690588864E+00
-1.9662933504E+00 -1.9635355717E+00 -1.9607855180E+00 -1.9580431567E+00
-1.9553084557E+00 -1.9525813828E+00 -1.9498619062E+00 -1.9471499943E+00
-1.9444456154E+00 -1.9417487383E+00 -1.9390593317E+00 -1.9363773648E+00
-1.9337028065E+00 -1.9310356264E+00 -1.9283757939E+00 -1.9257232787E+00
-1.9230780506E+00 -1.9204400796E+00 -1.9178093360E+00 -1.9151857900E+00
-1.9125694122E+00 -1.9099601733E+00 -1.9073580439E+00 -1.9047629952E+00
-1.9021749983E+00 -1.8995940244E+00 -1.8970200450E+00 -1.8944530318E+00
-1.8918929564E+00 -1.8893397909E+00 -1.8867935072E+00 -1.8842540775E+00
-1.8817214743E+00 -1.8791956700E+00 -1.8766766373E+00 -1.8741643490E+00
-1.8716587781E+00 -1.8691598976E+00 -1.8666676808E+00 -1.8641821011E+00
-1.8617031320E+00 -1.8592307471E+00 -1.8567649203E+00 -1.8543056255E+00