<UPF version="2.0.1"><PP_INFO>This pseudopotential file has been produced using the code
ONCVPSP (Optimized Norm-Conservinng Vanderbilt PSeudopotential)
scalar-relativistic version 3.3.0 08/16/2017 by D. R. Hamann
The code is available through a link at URL www.mat-simresearch.com.
Documentation with the package provides a full discription of the
input data below.
While it is not required under the terms of the GNU GPL, it is
suggested that you cite D. R. Hamann, Phys. Rev. B 88, 085117 (2013)
in any publication using these pseudopotentials.<PP_INPUTFILE>
# ATOM AND REFERENCE CONFIGURATION
# atsym z nc nv iexc psfile
F 9.00 1 2 -116133 upf
#
# n l f energy (Ha)
1 0 2.00
2 0 2.00
2 1 5.00
#
# PSEUDOPOTENTIAL AND OPTIMIZATION
# lmax
2
#
# l, rc, ep, ncon, nbas, qcut
0 1.30000 -1.09221 4 8 8.60000
1 1.45000 -0.40615 4 8 9.00000
2 1.60000 0.15000 4 8 5.80000
#
# LOCAL POTENTIAL
# lloc, lpopt, rc(5), dvloc0
4 5 0.95000 0.00000
#
# VANDERBILT-KLEINMAN-BYLANDER PROJECTORs
# l, nproj, debl
0 2 1.50000
1 2 1.50000
2 1 2.00000
#
# MODEL CORE CHARGE
# icmod, fcfact, rcfact
3 2.50000 1.85000
#
# LOG DERIVATIVE ANALYSIS
# epsh1, epsh2, depsh
-12.00 12.00 0.02
#
# OUTPUT GRID
# rlmax, drl
6.00 0.01
#
# TEST CONFIGURATIONS
# ncnf
0
# nvcnf
# n l f</PP_INPUTFILE></PP_INFO><PP_HEADER generated="Generated using ONCVPSP code by D. R. Hamann" author="anonymous" date="180301" comment="" element="F " pseudo_type="NC" relativistic="scalar" is_ultrasoft="F" is_paw="F" is_coulomb="F" has_so="F" has_wfc="F" has_gipaw="F" core_correction="T" functional="PBESOL" z_valence="    7.00" total_psenergy="  -4.76441311424E+01" rho_cutoff="   8.31000000000E+00" l_max="2" l_local="-1" mesh_size="   832" number_of_wfc="2" number_of_proj="5"/><PP_MESH><PP_R type="real" size=" 832" columns="8">
0.0000 0.0100 0.0200 0.0300 0.0400 0.0500 0.0600 0.0700
0.0800 0.0900 0.1000 0.1100 0.1200 0.1300 0.1400 0.1500
0.1600 0.1700 0.1800 0.1900 0.2000 0.2100 0.2200 0.2300
0.2400 0.2500 0.2600 0.2700 0.2800 0.2900 0.3000 0.3100
0.3200 0.3300 0.3400 0.3500 0.3600 0.3700 0.3800 0.3900
0.4000 0.4100 0.4200 0.4300 0.4400 0.4500 0.4600 0.4700
0.4800 0.4900 0.5000 0.5100 0.5200 0.5300 0.5400 0.5500
0.5600 0.5700 0.5800 0.5900 0.6000 0.6100 0.6200 0.6300
0.6400 0.6500 0.6600 0.6700 0.6800 0.6900 0.7000 0.7100
0.7200 0.7300 0.7400 0.7500 0.7600 0.7700 0.7800 0.7900
0.8000 0.8100 0.8200 0.8300 0.8400 0.8500 0.8600 0.8700
0.8800 0.8900 0.9000 0.9100 0.9200 0.9300 0.9400 0.9500
0.9600 0.9700 0.9800 0.9900 1.0000 1.0100 1.0200 1.0300
1.0400 1.0500 1.0600 1.0700 1.0800 1.0900 1.1000 1.1100
1.1200 1.1300 1.1400 1.1500 1.1600 1.1700 1.1800 1.1900
1.2000 1.2100 1.2200 1.2300 1.2400 1.2500 1.2600 1.2700
1.2800 1.2900 1.3000 1.3100 1.3200 1.3300 1.3400 1.3500
1.3600 1.3700 1.3800 1.3900 1.4000 1.4100 1.4200 1.4300
1.4400 1.4500 1.4600 1.4700 1.4800 1.4900 1.5000 1.5100
1.5200 1.5300 1.5400 1.5500 1.5600 1.5700 1.5800 1.5900
1.6000 1.6100 1.6200 1.6300 1.6400 1.6500 1.6600 1.6700
1.6800 1.6900 1.7000 1.7100 1.7200 1.7300 1.7400 1.7500
1.7600 1.7700 1.7800 1.7900 1.8000 1.8100 1.8200 1.8300
1.8400 1.8500 1.8600 1.8700 1.8800 1.8900 1.9000 1.9100
1.9200 1.9300 1.9400 1.9500 1.9600 1.9700 1.9800 1.9900
2.0000 2.0100 2.0200 2.0300 2.0400 2.0500 2.0600 2.0700
2.0800 2.0900 2.1000 2.1100 2.1200 2.1300 2.1400 2.1500
2.1600 2.1700 2.1800 2.1900 2.2000 2.2100 2.2200 2.2300
2.2400 2.2500 2.2600 2.2700 2.2800 2.2900 2.3000 2.3100
2.3200 2.3300 2.3400 2.3500 2.3600 2.3700 2.3800 2.3900
2.4000 2.4100 2.4200 2.4300 2.4400 2.4500 2.4600 2.4700
2.4800 2.4900 2.5000 2.5100 2.5200 2.5300 2.5400 2.5500
2.5600 2.5700 2.5800 2.5900 2.6000 2.6100 2.6200 2.6300
2.6400 2.6500 2.6600 2.6700 2.6800 2.6900 2.7000 2.7100
2.7200 2.7300 2.7400 2.7500 2.7600 2.7700 2.7800 2.7900
2.8000 2.8100 2.8200 2.8300 2.8400 2.8500 2.8600 2.8700
2.8800 2.8900 2.9000 2.9100 2.9200 2.9300 2.9400 2.9500
2.9600 2.9700 2.9800 2.9900 3.0000 3.0100 3.0200 3.0300
3.0400 3.0500 3.0600 3.0700 3.0800 3.0900 3.1000 3.1100
3.1200 3.1300 3.1400 3.1500 3.1600 3.1700 3.1800 3.1900
3.2000 3.2100 3.2200 3.2300 3.2400 3.2500 3.2600 3.2700
3.2800 3.2900 3.3000 3.3100 3.3200 3.3300 3.3400 3.3500
3.3600 3.3700 3.3800 3.3900 3.4000 3.4100 3.4200 3.4300
3.4400 3.4500 3.4600 3.4700 3.4800 3.4900 3.5000 3.5100
3.5200 3.5300 3.5400 3.5500 3.5600 3.5700 3.5800 3.5900
3.6000 3.6100 3.6200 3.6300 3.6400 3.6500 3.6600 3.6700
3.6800 3.6900 3.7000 3.7100 3.7200 3.7300 3.7400 3.7500
3.7600 3.7700 3.7800 3.7900 3.8000 3.8100 3.8200 3.8300
3.8400 3.8500 3.8600 3.8700 3.8800 3.8900 3.9000 3.9100
3.9200 3.9300 3.9400 3.9500 3.9600 3.9700 3.9800 3.9900
4.0000 4.0100 4.0200 4.0300 4.0400 4.0500 4.0600 4.0700
4.0800 4.0900 4.1000 4.1100 4.1200 4.1300 4.1400 4.1500
4.1600 4.1700 4.1800 4.1900 4.2000 4.2100 4.2200 4.2300
4.2400 4.2500 4.2600 4.2700 4.2800 4.2900 4.3000 4.3100
4.3200 4.3300 4.3400 4.3500 4.3600 4.3700 4.3800 4.3900
4.4000 4.4100 4.4200 4.4300 4.4400 4.4500 4.4600 4.4700
4.4800 4.4900 4.5000 4.5100 4.5200 4.5300 4.5400 4.5500
4.5600 4.5700 4.5800 4.5900 4.6000 4.6100 4.6200 4.6300
4.6400 4.6500 4.6600 4.6700 4.6800 4.6900 4.7000 4.7100
4.7200 4.7300 4.7400 4.7500 4.7600 4.7700 4.7800 4.7900
4.8000 4.8100 4.8200 4.8300 4.8400 4.8500 4.8600 4.8700
4.8800 4.8900 4.9000 4.9100 4.9200 4.9300 4.9400 4.9500
4.9600 4.9700 4.9800 4.9900 5.0000 5.0100 5.0200 5.0300
5.0400 5.0500 5.0600 5.0700 5.0800 5.0900 5.1000 5.1100
5.1200 5.1300 5.1400 5.1500 5.1600 5.1700 5.1800 5.1900
5.2000 5.2100 5.2200 5.2300 5.2400 5.2500 5.2600 5.2700
5.2800 5.2900 5.3000 5.3100 5.3200 5.3300 5.3400 5.3500
5.3600 5.3700 5.3800 5.3900 5.4000 5.4100 5.4200 5.4300
5.4400 5.4500 5.4600 5.4700 5.4800 5.4900 5.5000 5.5100
5.5200 5.5300 5.5400 5.5500 5.5600 5.5700 5.5800 5.5900
5.6000 5.6100 5.6200 5.6300 5.6400 5.6500 5.6600 5.6700
5.6800 5.6900 5.7000 5.7100 5.7200 5.7300 5.7400 5.7500
5.7600 5.7700 5.7800 5.7900 5.8000 5.8100 5.8200 5.8300
5.8400 5.8500 5.8600 5.8700 5.8800 5.8900 5.9000 5.9100
5.9200 5.9300 5.9400 5.9500 5.9600 5.9700 5.9800 5.9900
6.0000 6.0100 6.0200 6.0300 6.0400 6.0500 6.0600 6.0700
6.0800 6.0900 6.1000 6.1100 6.1200 6.1300 6.1400 6.1500
6.1600 6.1700 6.1800 6.1900 6.2000 6.2100 6.2200 6.2300
6.2400 6.2500 6.2600 6.2700 6.2800 6.2900 6.3000 6.3100
6.3200 6.3300 6.3400 6.3500 6.3600 6.3700 6.3800 6.3900
6.4000 6.4100 6.4200 6.4300 6.4400 6.4500 6.4600 6.4700
6.4800 6.4900 6.5000 6.5100 6.5200 6.5300 6.5400 6.5500
6.5600 6.5700 6.5800 6.5900 6.6000 6.6100 6.6200 6.6300
6.6400 6.6500 6.6600 6.6700 6.6800 6.6900 6.7000 6.7100
6.7200 6.7300 6.7400 6.7500 6.7600 6.7700 6.7800 6.7900
6.8000 6.8100 6.8200 6.8300 6.8400 6.8500 6.8600 6.8700
6.8800 6.8900 6.9000 6.9100 6.9200 6.9300 6.9400 6.9500
6.9600 6.9700 6.9800 6.9900 7.0000 7.0100 7.0200 7.0300
7.0400 7.0500 7.0600 7.0700 7.0800 7.0900 7.1000 7.1100
7.1200 7.1300 7.1400 7.1500 7.1600 7.1700 7.1800 7.1900
7.2000 7.2100 7.2200 7.2300 7.2400 7.2500 7.2600 7.2700
7.2800 7.2900 7.3000 7.3100 7.3200 7.3300 7.3400 7.3500
7.3600 7.3700 7.3800 7.3900 7.4000 7.4100 7.4200 7.4300
7.4400 7.4500 7.4600 7.4700 7.4800 7.4900 7.5000 7.5100
7.5200 7.5300 7.5400 7.5500 7.5600 7.5700 7.5800 7.5900
7.6000 7.6100 7.6200 7.6300 7.6400 7.6500 7.6600 7.6700
7.6800 7.6900 7.7000 7.7100 7.7200 7.7300 7.7400 7.7500
7.7600 7.7700 7.7800 7.7900 7.8000 7.8100 7.8200 7.8300
7.8400 7.8500 7.8600 7.8700 7.8800 7.8900 7.9000 7.9100
7.9200 7.9300 7.9400 7.9500 7.9600 7.9700 7.9800 7.9900
8.0000 8.0100 8.0200 8.0300 8.0400 8.0500 8.0600 8.0700
8.0800 8.0900 8.1000 8.1100 8.1200 8.1300 8.1400 8.1500
8.1600 8.1700 8.1800 8.1900 8.2000 8.2100 8.2200 8.2300
8.2400 8.2500 8.2600 8.2700 8.2800 8.2900 8.3000 8.3100</PP_R><PP_RAB type="real" size=" 832" columns="8">
0.0100 0.0100 0.0100 0.0100 0.0100 0.0100 0.0100 0.0100
0.0100 0.0100 0.0100 0.0100 0.0100 0.0100 0.0100 0.0100
0.0100 0.0100 0.0100 0.0100 0.0100 0.0100 0.0100 0.0100
0.0100 0.0100 0.0100 0.0100 0.0100 0.0100 0.0100 0.0100
0.0100 0.0100 0.0100 0.0100 0.0100 0.0100 0.0100 0.0100
0.0100 0.0100 0.0100 0.0100 0.0100 0.0100 0.0100 0.0100
0.0100 0.0100 0.0100 0.0100 0.0100 0.0100 0.0100 0.0100
0.0100 0.0100 0.0100 0.0100 0.0100 0.0100 0.0100 0.0100
0.0100 0.0100 0.0100 0.0100 0.0100 0.0100 0.0100 0.0100
0.0100 0.0100 0.0100 0.0100 0.0100 0.0100 0.0100 0.0100
0.0100 0.0100 0.0100 0.0100 0.0100 0.0100 0.0100 0.0100
0.0100 0.0100 0.0100 0.0100 0.0100 0.0100 0.0100 0.0100
0.0100 0.0100 0.0100 0.0100 0.0100 0.0100 0.0100 0.0100
0.0100 0.0100 0.0100 0.0100 0.0100 0.0100 0.0100 0.0100
0.0100 0.0100 0.0100 0.0100 0.0100 0.0100 0.0100 0.0100
0.0100 0.0100 0.0100 0.0100 0.0100 0.0100 0.0100 0.0100
0.0100 0.0100 0.0100 0.0100 0.0100 0.0100 0.0100 0.0100
0.0100 0.0100 0.0100 0.0100 0.0100 0.0100 0.0100 0.0100
0.0100 0.0100 0.0100 0.0100 0.0100 0.0100 0.0100 0.0100
0.0100 0.0100 0.0100 0.0100 0.0100 0.0100 0.0100 0.0100
0.0100 0.0100 0.0100 0.0100 0.0100 0.0100 0.0100 0.0100
0.0100 0.0100 0.0100 0.0100 0.0100 0.0100 0.0100 0.0100
0.0100 0.0100 0.0100 0.0100 0.0100 0.0100 0.0100 0.0100
0.0100 0.0100 0.0100 0.0100 0.0100 0.0100 0.0100 0.0100
0.0100 0.0100 0.0100 0.0100 0.0100 0.0100 0.0100 0.0100
0.0100 0.0100 0.0100 0.0100 0.0100 0.0100 0.0100 0.0100
0.0100 0.0100 0.0100 0.0100 0.0100 0.0100 0.0100 0.0100
0.0100 0.0100 0.0100 0.0100 0.0100 0.0100 0.0100 0.0100
0.0100 0.0100 0.0100 0.0100 0.0100 0.0100 0.0100 0.0100
0.0100 0.0100 0.0100 0.0100 0.0100 0.0100 0.0100 0.0100
0.0100 0.0100 0.0100 0.0100 0.0100 0.0100 0.0100 0.0100
0.0100 0.0100 0.0100 0.0100 0.0100 0.0100 0.0100 0.0100
0.0100 0.0100 0.0100 0.0100 0.0100 0.0100 0.0100 0.0100
0.0100 0.0100 0.0100 0.0100 0.0100 0.0100 0.0100 0.0100
0.0100 0.0100 0.0100 0.0100 0.0100 0.0100 0.0100 0.0100
0.0100 0.0100 0.0100 0.0100 0.0100 0.0100 0.0100 0.0100
0.0100 0.0100 0.0100 0.0100 0.0100 0.0100 0.0100 0.0100
0.0100 0.0100 0.0100 0.0100 0.0100 0.0100 0.0100 0.0100
0.0100 0.0100 0.0100 0.0100 0.0100 0.0100 0.0100 0.0100
0.0100 0.0100 0.0100 0.0100 0.0100 0.0100 0.0100 0.0100
0.0100 0.0100 0.0100 0.0100 0.0100 0.0100 0.0100 0.0100
0.0100 0.0100 0.0100 0.0100 0.0100 0.0100 0.0100 0.0100
0.0100 0.0100 0.0100 0.0100 0.0100 0.0100 0.0100 0.0100
0.0100 0.0100 0.0100 0.0100 0.0100 0.0100 0.0100 0.0100
0.0100 0.0100 0.0100 0.0100 0.0100 0.0100 0.0100 0.0100
0.0100 0.0100 0.0100 0.0100 0.0100 0.0100 0.0100 0.0100
0.0100 0.0100 0.0100 0.0100 0.0100 0.0100 0.0100 0.0100
0.0100 0.0100 0.0100 0.0100 0.0100 0.0100 0.0100 0.0100
0.0100 0.0100 0.0100 0.0100 0.0100 0.0100 0.0100 0.0100
0.0100 0.0100 0.0100 0.0100 0.0100 0.0100 0.0100 0.0100
0.0100 0.0100 0.0100 0.0100 0.0100 0.0100 0.0100 0.0100
0.0100 0.0100 0.0100 0.0100 0.0100 0.0100 0.0100 0.0100
0.0100 0.0100 0.0100 0.0100 0.0100 0.0100 0.0100 0.0100
0.0100 0.0100 0.0100 0.0100 0.0100 0.0100 0.0100 0.0100
0.0100 0.0100 0.0100 0.0100 0.0100 0.0100 0.0100 0.0100
0.0100 0.0100 0.0100 0.0100 0.0100 0.0100 0.0100 0.0100
0.0100 0.0100 0.0100 0.0100 0.0100 0.0100 0.0100 0.0100
0.0100 0.0100 0.0100 0.0100 0.0100 0.0100 0.0100 0.0100
0.0100 0.0100 0.0100 0.0100 0.0100 0.0100 0.0100 0.0100
0.0100 0.0100 0.0100 0.0100 0.0100 0.0100 0.0100 0.0100
0.0100 0.0100 0.0100 0.0100 0.0100 0.0100 0.0100 0.0100
0.0100 0.0100 0.0100 0.0100 0.0100 0.0100 0.0100 0.0100
0.0100 0.0100 0.0100 0.0100 0.0100 0.0100 0.0100 0.0100
0.0100 0.0100 0.0100 0.0100 0.0100 0.0100 0.0100 0.0100
0.0100 0.0100 0.0100 0.0100 0.0100 0.0100 0.0100 0.0100
0.0100 0.0100 0.0100 0.0100 0.0100 0.0100 0.0100 0.0100
0.0100 0.0100 0.0100 0.0100 0.0100 0.0100 0.0100 0.0100
0.0100 0.0100 0.0100 0.0100 0.0100 0.0100 0.0100 0.0100
0.0100 0.0100 0.0100 0.0100 0.0100 0.0100 0.0100 0.0100
0.0100 0.0100 0.0100 0.0100 0.0100 0.0100 0.0100 0.0100
0.0100 0.0100 0.0100 0.0100 0.0100 0.0100 0.0100 0.0100
0.0100 0.0100 0.0100 0.0100 0.0100 0.0100 0.0100 0.0100
0.0100 0.0100 0.0100 0.0100 0.0100 0.0100 0.0100 0.0100
0.0100 0.0100 0.0100 0.0100 0.0100 0.0100 0.0100 0.0100
0.0100 0.0100 0.0100 0.0100 0.0100 0.0100 0.0100 0.0100
0.0100 0.0100 0.0100 0.0100 0.0100 0.0100 0.0100 0.0100
0.0100 0.0100 0.0100 0.0100 0.0100 0.0100 0.0100 0.0100
0.0100 0.0100 0.0100 0.0100 0.0100 0.0100 0.0100 0.0100
0.0100 0.0100 0.0100 0.0100 0.0100 0.0100 0.0100 0.0100
0.0100 0.0100 0.0100 0.0100 0.0100 0.0100 0.0100 0.0100
0.0100 0.0100 0.0100 0.0100 0.0100 0.0100 0.0100 0.0100
0.0100 0.0100 0.0100 0.0100 0.0100 0.0100 0.0100 0.0100
0.0100 0.0100 0.0100 0.0100 0.0100 0.0100 0.0100 0.0100
0.0100 0.0100 0.0100 0.0100 0.0100 0.0100 0.0100 0.0100
0.0100 0.0100 0.0100 0.0100 0.0100 0.0100 0.0100 0.0100
0.0100 0.0100 0.0100 0.0100 0.0100 0.0100 0.0100 0.0100
0.0100 0.0100 0.0100 0.0100 0.0100 0.0100 0.0100 0.0100
0.0100 0.0100 0.0100 0.0100 0.0100 0.0100 0.0100 0.0100
0.0100 0.0100 0.0100 0.0100 0.0100 0.0100 0.0100 0.0100
0.0100 0.0100 0.0100 0.0100 0.0100 0.0100 0.0100 0.0100
0.0100 0.0100 0.0100 0.0100 0.0100 0.0100 0.0100 0.0100
0.0100 0.0100 0.0100 0.0100 0.0100 0.0100 0.0100 0.0100
0.0100 0.0100 0.0100 0.0100 0.0100 0.0100 0.0100 0.0100
0.0100 0.0100 0.0100 0.0100 0.0100 0.0100 0.0100 0.0100
0.0100 0.0100 0.0100 0.0100 0.0100 0.0100 0.0100 0.0100
0.0100 0.0100 0.0100 0.0100 0.0100 0.0100 0.0100 0.0100
0.0100 0.0100 0.0100 0.0100 0.0100 0.0100 0.0100 0.0100
0.0100 0.0100 0.0100 0.0100 0.0100 0.0100 0.0100 0.0100
0.0100 0.0100 0.0100 0.0100 0.0100 0.0100 0.0100 0.0100
0.0100 0.0100 0.0100 0.0100 0.0100 0.0100 0.0100 0.0100
0.0100 0.0100 0.0100 0.0100 0.0100 0.0100 0.0100 0.0100
0.0100 0.0100 0.0100 0.0100 0.0100 0.0100 0.0100 0.0100
0.0100 0.0100 0.0100 0.0100 0.0100 0.0100 0.0100 0.0100
0.0100 0.0100 0.0100 0.0100 0.0100 0.0100 0.0100 0.0100</PP_RAB></PP_MESH><PP_LOCAL type="real" size=" 832" columns="4">
-3.0436673945E+01 -3.0433953424E+01 -3.0425793580E+01 -3.0412199652E+01
-3.0393180229E+01 -3.0368747072E+01 -3.0338914872E+01 -3.0303700954E+01
-3.0263124949E+01 -3.0217208446E+01 -3.0165974646E+01 -3.0109448019E+01
-3.0047654000E+01 -2.9980618713E+01 -2.9908368757E+01 -2.9830931040E+01
-2.9748332684E+01 -2.9660600993E+01 -2.9567763494E+01 -2.9469848032E+01
-2.9366882943E+01 -2.9258897275E+01 -2.9145921062E+01 -2.9027985649E+01
-2.8905124051E+01 -2.8777371347E+01 -2.8644765094E+01 -2.8507345761E+01
-2.8365157179E+01 -2.8218246979E+01 -2.8066667044E+01 -2.7910473940E+01
-2.7749729338E+01 -2.7584500409E+01 -2.7414860197E+01 -2.7240887954E+01
-2.7062669445E+01 -2.6880297201E+01 -2.6693870732E+01 -2.6503496685E+01
-2.6309288949E+01 -2.6111368701E+01 -2.5909864397E+01 -2.5704911700E+01
-2.5496653354E+01 -2.5285238992E+01 -2.5070824902E+01 -2.4853573733E+01
-2.4633654160E+01 -2.4411240507E+01 -2.4186512341E+01 -2.3959654028E+01
-2.3730854280E+01 -2.3500305678E+01 -2.3268204186E+01 -2.3034748661E+01
-2.2800140361E+01 -2.2564582447E+01 -2.2328279494E+01 -2.2091437001E+01
-2.1854260896E+01 -2.1616957051E+01 -2.1379730791E+01 -2.1142786395E+01
-2.0906326601E+01 -2.0670552099E+01 -2.0435661012E+01 -2.0201848381E+01
-1.9969305629E+01 -1.9738220027E+01 -1.9508774149E+01 -1.9281145326E+01
-1.9055505104E+01 -1.8832018698E+01 -1.8610844459E+01 -1.8392133348E+01
-1.8176028428E+01 -1.7962664374E+01 -1.7752166999E+01 -1.7544652805E+01
-1.7340228566E+01 -1.7138990929E+01 -1.6941026043E+01 -1.6746409218E+01
-1.6555204613E+01 -1.6367464938E+01 -1.6183231192E+01 -1.6002532417E+01
-1.5825385468E+01 -1.5651794810E+01 -1.5481752316E+01 -1.5315237090E+01
-1.5152215287E+01 -1.4992639948E+01 -1.4836450830E+01 -1.4683574297E+01
-1.4533922967E+01 -1.4387396448E+01 -1.4243888955E+01 -1.4103297079E+01
-1.3965521095E+01 -1.3830464610E+01 -1.3698034634E+01 -1.3568141560E+01
-1.3440699133E+01 -1.3315624424E+01 -1.3192837808E+01 -1.3072262919E+01
-1.2953826619E+01 -1.2837458950E+01 -1.2723093088E+01 -1.2610665286E+01
-1.2500114819E+01 -1.2391383921E+01 -1.2284417719E+01 -1.2179164165E+01
-1.2075573964E+01 -1.1973600502E+01 -1.1873199765E+01 -1.1774330266E+01
-1.1676952964E+01 -1.1581031182E+01 -1.1486530525E+01 -1.1393418795E+01
-1.1301665899E+01 -1.1211243785E+01 -1.1122126332E+01 -1.1034289242E+01
-1.0947709634E+01 -1.0862366323E+01 -1.0778240411E+01 -1.0695318797E+01
-1.0613593583E+01 -1.0533059463E+01 -1.0453708218E+01 -1.0375527267E+01
-1.0298503101E+01 -1.0222622574E+01 -1.0147873993E+01 -1.0074245400E+01
-1.0001724556E+01 -9.9302988818E+00 -9.8599564559E+00 -9.7906851202E+00
-9.7224714153E+00 -9.6552945761E+00 -9.5891155437E+00 -9.5238852995E+00
-9.4595517537E+00 -9.3960768753E+00 -9.3334409563E+00 -9.2716299505E+00
-9.2106318941E+00 -9.1504308966E+00 -9.0910098735E+00 -9.0323542534E+00
-8.9744497444E+00 -8.9172821350E+00 -8.8608376460E+00 -8.8051028753E+00
-8.7500647458E+00 -8.6957104912E+00 -8.6420276409E+00 -8.5890040048E+00
-8.5366276593E+00 -8.4848869364E+00 -8.4337704135E+00 -8.3832669066E+00
-8.3333654632E+00 -8.2840553588E+00 -8.2353260926E+00 -8.1871673858E+00
-8.1395691800E+00 -8.0925216358E+00 -8.0460151328E+00 -8.0000402676E+00
-7.9545878549E+00 -7.9096489297E+00 -7.8652147224E+00 -7.8212766562E+00
-7.7778264458E+00 -7.7348560876E+00 -7.6923576134E+00 -7.6503229771E+00
-7.6087443462E+00 -7.5676141982E+00 -7.5269253466E+00 -7.4866714137E+00
-7.4468462571E+00 -7.4074433741E+00 -7.3684560412E+00 -7.3298774814E+00
-7.2917009478E+00 -7.2539198880E+00 -7.2165282156E+00 -7.1795200487E+00
-7.1428895197E+00 -7.1066308815E+00 -7.0707385018E+00 -7.0352068573E+00
-7.0000305300E+00 -6.9652042187E+00 -6.9307227263E+00 -6.8965809566E+00
-6.8627739135E+00 -6.8292966982E+00 -6.7961445074E+00 -6.7633126305E+00
-6.7307964474E+00 -6.6985914265E+00 -6.6666931225E+00 -6.6350971745E+00
-6.6037993036E+00 -6.5727953116E+00 -6.5420810785E+00 -6.5116525611E+00
-6.4815057911E+00 -6.4516368732E+00 -6.4220419837E+00 -6.3927173688E+00
-6.3636593428E+00 -6.3348642868E+00 -6.3063286472E+00 -6.2780489338E+00
-6.2500217192E+00 -6.2222436366E+00 -6.1947113789E+00 -6.1674216973E+00
-6.1403714000E+00 -6.1135573509E+00 -6.0869764684E+00 -6.0606257245E+00
-6.0345021432E+00 -6.0086027996E+00 -5.9829248188E+00 -5.9574653750E+00
-5.9322216901E+00 -5.9071910330E+00 -5.8823707185E+00 -5.8577581063E+00
-5.8333506001E+00 -5.8091456467E+00 -5.7851407352E+00 -5.7613333959E+00
-5.7377211996E+00 -5.7143017569E+00 -5.6910727171E+00 -5.6680317677E+00
-5.6451766334E+00 -5.6225050754E+00 -5.6000148909E+00 -5.5777039121E+00
-5.5555700056E+00 -5.5336110717E+00 -5.5118250439E+00 -5.4902098880E+00
-5.4687636017E+00 -5.4474842136E+00 -5.4263697832E+00 -5.4054183998E+00
-5.3846281820E+00 -5.3639972775E+00 -5.3435238621E+00 -5.3232061393E+00
-5.3030423399E+00 -5.2830307215E+00 -5.2631695677E+00 -5.2434571879E+00
-5.2238919168E+00 -5.2044721138E+00 -5.1851961626E+00 -5.1660624707E+00
-5.1470694692E+00 -5.1282156121E+00 -5.1094993758E+00 -5.0909192590E+00
-5.0724737824E+00 -5.0541614875E+00 -5.0359809374E+00 -5.0179307153E+00
-5.0000094249E+00 -4.9822156898E+00 -4.9645481529E+00 -4.9470054766E+00
-4.9295863418E+00 -4.9122894481E+00 -4.8951135134E+00 -4.8780572732E+00
-4.8611194808E+00 -4.8442989065E+00 -4.8275943378E+00 -4.8110045788E+00
-4.7945284499E+00 -4.7781647876E+00 -4.7619124444E+00 -4.7457702882E+00
-4.7297372023E+00 -4.7138120849E+00 -4.6979938490E+00 -4.6822814224E+00
-4.6666737469E+00 -4.6511697785E+00 -4.6357684869E+00 -4.6204688556E+00
-4.6052698814E+00 -4.5901705741E+00 -4.5751699566E+00 -4.5602670645E+00
-4.5454609460E+00 -4.5307506615E+00 -4.5161352835E+00 -4.5016138966E+00
-4.4871855970E+00 -4.4728494924E+00 -4.4586047020E+00 -4.4444503562E+00
-4.4303855962E+00 -4.4164095742E+00 -4.4025214531E+00 -4.3887204063E+00
-4.3750056172E+00 -4.3613762799E+00 -4.3478315982E+00 -4.3343707857E+00
-4.3209930658E+00 -4.3076976717E+00 -4.2944838455E+00 -4.2813508391E+00
-4.2682979131E+00 -4.2553243374E+00 -4.2424293905E+00 -4.2296123597E+00
-4.2168725411E+00 -4.2042092390E+00 -4.1916217660E+00 -4.1791094432E+00
-4.1666715994E+00 -4.1543075717E+00 -4.1420167048E+00 -4.1297983514E+00
-4.1176518715E+00 -4.1055766328E+00 -4.0935720104E+00 -4.0816373866E+00
-4.0697721510E+00 -4.0579757001E+00 -4.0462474376E+00 -4.0345867738E+00
-4.0229931261E+00 -4.0114659183E+00 -4.0000045809E+00 -3.9886085510E+00
-3.9772772718E+00 -3.9660101932E+00 -3.9548067709E+00 -3.9436664671E+00
-3.9325887498E+00 -3.9215730930E+00 -3.9106189768E+00 -3.8997258867E+00
-3.8888933143E+00 -3.8781207566E+00 -3.8674077162E+00 -3.8567537012E+00
-3.8461582252E+00 -3.8356208069E+00 -3.8251409706E+00 -3.8147182453E+00
-3.8043521657E+00 -3.7940422711E+00 -3.7837881059E+00 -3.7735892195E+00
-3.7634451661E+00 -3.7533555047E+00 -3.7433197989E+00 -3.7333376171E+00
-3.7234085322E+00 -3.7135321216E+00 -3.7037079674E+00 -3.6939356558E+00
-3.6842147776E+00 -3.6745449278E+00 -3.6649257056E+00 -3.6553567144E+00
-3.6458375618E+00 -3.6363678594E+00 -3.6269472229E+00 -3.6175752720E+00
-3.6082516301E+00 -3.5989759247E+00 -3.5897477871E+00 -3.5805668523E+00
-3.5714327590E+00 -3.5623451496E+00 -3.5533036702E+00 -3.5443079705E+00
-3.5353577035E+00 -3.5264525261E+00 -3.5175920982E+00 -3.5087760835E+00
-3.5000041488E+00 -3.4912759643E+00 -3.4825912036E+00 -3.4739495434E+00
-3.4653506636E+00 -3.4567942473E+00 -3.4482799807E+00 -3.4398075533E+00
-3.4313766572E+00 -3.4229869879E+00 -3.4146382437E+00 -3.4063301260E+00
-3.3980623387E+00 -3.3898345891E+00 -3.3816465869E+00 -3.3734980449E+00
-3.3653886784E+00 -3.3573182056E+00 -3.3492863474E+00 -3.3412928273E+00
-3.3333373714E+00 -3.3254197086E+00 -3.3175395700E+00 -3.3096966897E+00
-3.3018908039E+00 -3.2941216516E+00 -3.2863889740E+00 -3.2786925149E+00
-3.2710320204E+00 -3.2634072390E+00 -3.2558179216E+00 -3.2482638212E+00
-3.2407446934E+00 -3.2332602958E+00 -3.2258103884E+00 -3.2183947332E+00
-3.2110130947E+00 -3.2036652393E+00 -3.1963509355E+00 -3.1890699542E+00
-3.1818220681E+00 -3.1746070520E+00 -3.1674246829E+00 -3.1602747398E+00
-3.1531570034E+00 -3.1460712567E+00 -3.1390172844E+00 -3.1319948735E+00
-3.1250038124E+00 -3.1180438917E+00 -3.1111149039E+00 -3.1042166432E+00
-3.0973489055E+00 -3.0905114889E+00 -3.0837041929E+00 -3.0769268189E+00
-3.0701791701E+00 -3.0634610514E+00 -3.0567722693E+00 -3.0501126320E+00
-3.0434819496E+00 -3.0368800335E+00 -3.0303066971E+00 -3.0237617550E+00
-3.0172450238E+00 -3.0107563214E+00 -3.0042954673E+00 -2.9978622827E+00
-2.9914565903E+00 -2.9850782141E+00 -2.9787269798E+00 -2.9724027146E+00
-2.9661052469E+00 -2.9598344069E+00 -2.9535900260E+00 -2.9473719372E+00
-2.9411799746E+00 -2.9350139740E+00 -2.9288737725E+00 -2.9227592085E+00
-2.9166701217E+00 -2.9106063532E+00 -2.9045677456E+00 -2.8985541423E+00
-2.8925653886E+00 -2.8866013307E+00 -2.8806618161E+00 -2.8747466937E+00
-2.8688558135E+00 -2.8629890268E+00 -2.8571461861E+00 -2.8513271450E+00
-2.8455317585E+00 -2.8397598826E+00 -2.8340113745E+00 -2.8282860927E+00
-2.8225838965E+00 -2.8169046468E+00 -2.8112482052E+00 -2.8056144346E+00
-2.8000031991E+00 -2.7944143636E+00 -2.7888477943E+00 -2.7833033584E+00
-2.7777809242E+00 -2.7722803609E+00 -2.7668015389E+00 -2.7613443296E+00
-2.7559086053E+00 -2.7504942394E+00 -2.7451011062E+00 -2.7397290811E+00
-2.7343780404E+00 -2.7290478614E+00 -2.7237384224E+00 -2.7184496025E+00
-2.7131812818E+00 -2.7079333415E+00 -2.7027056634E+00 -2.6974981304E+00
-2.6923106264E+00 -2.6871430360E+00 -2.6819952447E+00 -2.6768671390E+00
-2.6717586062E+00 -2.6666695345E+00 -2.6615998127E+00 -2.6565493309E+00
-2.6515179797E+00 -2.6465056505E+00 -2.6415122357E+00 -2.6365376285E+00
-2.6315817228E+00 -2.6266444133E+00 -2.6217255956E+00 -2.6168251660E+00
-2.6119430215E+00 -2.6070790601E+00 -2.6022331802E+00 -2.5974052813E+00
-2.5925952635E+00 -2.5878030276E+00 -2.5830284753E+00 -2.5782715087E+00
-2.5735320310E+00 -2.5688099458E+00 -2.5641051576E+00 -2.5594175716E+00
-2.5547470935E+00 -2.5500936299E+00 -2.5454570879E+00 -2.5408373755E+00
-2.5362344012E+00 -2.5316480741E+00 -2.5270783042E+00 -2.5225250019E+00
-2.5179880784E+00 -2.5134674454E+00 -2.5089630154E+00 -2.5044747014E+00
-2.5000024171E+00 -2.4955460768E+00 -2.4911055953E+00 -2.4866808882E+00
-2.4822718715E+00 -2.4778784619E+00 -2.4735005768E+00 -2.4691381339E+00
-2.4647910518E+00 -2.4604592493E+00 -2.4561426462E+00 -2.4518411625E+00
-2.4475547190E+00 -2.4432832369E+00 -2.4390266380E+00 -2.4347848446E+00
-2.4305577797E+00 -2.4263453667E+00 -2.4221475295E+00 -2.4179641926E+00
-2.4137952810E+00 -2.4096407202E+00 -2.4055004363E+00 -2.4013743557E+00
-2.3972624056E+00 -2.3931645134E+00 -2.3890806072E+00 -2.3850106155E+00
-2.3809544674E+00 -2.3769120922E+00 -2.3728834200E+00 -2.3688683812E+00
-2.3648669067E+00 -2.3608789280E+00 -2.3569043768E+00 -2.3529431854E+00
-2.3489952867E+00 -2.3450606137E+00 -2.3411391002E+00 -2.3372306802E+00
-2.3333352883E+00 -2.3294528595E+00 -2.3255833291E+00 -2.3217266330E+00
-2.3178827074E+00 -2.3140514890E+00 -2.3102329149E+00 -2.3064269226E+00
-2.3026334500E+00 -2.2988524355E+00 -2.2950838177E+00 -2.2913275359E+00
-2.2875835295E+00 -2.2838517385E+00 -2.2801321032E+00 -2.2764245642E+00
-2.2727290628E+00 -2.2690455403E+00 -2.2653739386E+00 -2.2617141999E+00
-2.2580662668E+00 -2.2544300823E+00 -2.2508055898E+00 -2.2471927328E+00
-2.2435914556E+00 -2.2400017024E+00 -2.2364234182E+00 -2.2328565479E+00
-2.2293010371E+00 -2.2257568316E+00 -2.2222238776E+00 -2.2187021215E+00
-2.2151915103E+00 -2.2116919910E+00 -2.2082035113E+00 -2.2047260189E+00
-2.2012594620E+00 -2.1978037892E+00 -2.1943589492E+00 -2.1909248912E+00
-2.1875015646E+00 -2.1840889193E+00 -2.1806869052E+00 -2.1772954729E+00
-2.1739145730E+00 -2.1705441566E+00 -2.1671841748E+00 -2.1638345795E+00
-2.1604953224E+00 -2.1571663558E+00 -2.1538476321E+00 -2.1505391043E+00
-2.1472407254E+00 -2.1439524486E+00 -2.1406742279E+00 -2.1374060169E+00
-2.1341477700E+00 -2.1308994418E+00 -2.1276609868E+00 -2.1244323603E+00
-2.1212135175E+00 -2.1180044140E+00 -2.1148050058E+00 -2.1116152488E+00
-2.1084350996E+00 -2.1052645148E+00 -2.1021034512E+00 -2.0989518661E+00
-2.0958097170E+00 -2.0926769614E+00 -2.0895535573E+00 -2.0864394630E+00
-2.0833346368E+00 -2.0802390374E+00 -2.0771526238E+00 -2.0740753552E+00
-2.0710071909E+00 -2.0679480907E+00 -2.0648980143E+00 -2.0618569220E+00
-2.0588247741E+00 -2.0558015313E+00 -2.0527871542E+00 -2.0497816041E+00
-2.0467848421E+00 -2.0437968298E+00 -2.0408175289E+00 -2.0378469014E+00
-2.0348849095E+00 -2.0319315155E+00 -2.0289866821E+00 -2.0260503721E+00
-2.0231225486E+00 -2.0202031748E+00 -2.0172922143E+00 -2.0143896306E+00
-2.0114953876E+00 -2.0086094496E+00 -2.0057317807E+00 -2.0028623455E+00
-2.0000011087E+00 -1.9971480353E+00 -1.9943030902E+00 -1.9914662390E+00
-1.9886374469E+00 -1.9858166799E+00 -1.9830039036E+00 -1.9801990844E+00
-1.9774021884E+00 -1.9746131820E+00 -1.9718320321E+00 -1.9690587054E+00
-1.9662931689E+00 -1.9635353899E+00 -1.9607853358E+00 -1.9580429742E+00
-1.9553082728E+00 -1.9525811997E+00 -1.9498617228E+00 -1.9471498106E+00
-1.9444454315E+00 -1.9417485541E+00 -1.9390591473E+00 -1.9363771801E+00
-1.9337026217E+00 -1.9310354414E+00 -1.9283756087E+00 -1.9257230933E+00
-1.9230778651E+00 -1.9204398940E+00 -1.9178091503E+00 -1.9151856042E+00
-1.9125692263E+00 -1.9099599872E+00 -1.9073578578E+00 -1.9047628091E+00
-1.9021748121E+00 -1.8995938382E+00 -1.8970198588E+00 -1.8944528455E+00
-1.8918927702E+00 -1.8893396046E+00 -1.8867933209E+00 -1.8842538913E+00
-1.8817212881E+00 -1.8791954838E+00 -1.8766764512E+00 -1.8741641630E+00
-1.8716585921E+00 -1.8691597117E+00 -1.8666674950E+00 -1.8641819154E+00
-1.8617029464E+00 -1.8592305616E+00 -1.8567647349E+00 -1.8543054402E+00
-1.8518526516E+00 -1.8494063433E+00 -1.8469664897E+00 -1.8445330652E+00
-1.8421060444E+00 -1.8396854022E+00 -1.8372711134E+00 -1.8348631530E+00
-1.8324614961E+00 -1.8300661182E+00 -1.8276769945E+00 -1.8252941006E+00
-1.8229174121E+00 -1.8205469049E+00 -1.8181825549E+00 -1.8158243382E+00
-1.8134722308E+00 -1.8111262090E+00 -1.8087862494E+00 -1.8064523284E+00
-1.8041244226E+00 -1.8018025089E+00 -1.7994865642E+00 -1.7971765654E+00
-1.7948724896E+00 -1.7925743143E+00 -1.7902820166E+00 -1.7879955741E+00
-1.7857149644E+00 -1.7834401651E+00 -1.7811711542E+00 -1.7789079095E+00
-1.7766504091E+00 -1.7743986311E+00 -1.7721525539E+00 -1.7699121557E+00
-1.7676774152E+00 -1.7654483108E+00 -1.7632248213E+00 -1.7610069255E+00
-1.7587946023E+00 -1.7565878308E+00 -1.7543865900E+00 -1.7521908592E+00
-1.7500006178E+00 -1.7478158451E+00 -1.7456365208E+00 -1.7434626244E+00
-1.7412941357E+00 -1.7391310346E+00 -1.7369733011E+00 -1.7348209150E+00
-1.7326738567E+00 -1.7305321063E+00 -1.7283956442E+00 -1.7262644508E+00
-1.7241385067E+00 -1.7220177925E+00 -1.7199022888E+00 -1.7177919766E+00
-1.7156868368E+00 -1.7135868503E+00 -1.7114919982E+00 -1.7094022618E+00
-1.7073176224E+00 -1.7052380612E+00 -1.7031635598E+00 -1.7010940997E+00
-1.6990296626E+00 -1.6969702302E+00 -1.6949157844E+00 -1.6928663070E+00
-1.6908217800E+00 -1.6887821855E+00 -1.6867475057E+00 -1.6847177229E+00</PP_LOCAL><PP_NONLOCAL><PP_BETA.1 type="real" size=" 832" columns="4" index="1" angular_momentum="0" cutoff_radius_index=" 164" cutoff_radius="    1.6300000000E+00">
-2.2575107339E-09 9.9801660644E-02 1.9922303024E-01 2.9788657760E-01
3.9542025545E-01 4.9146015351E-01 5.8565304640E-01 6.7765880431E-01
7.6715263613E-01 8.5382713782E-01 9.3739412203E-01 1.0175862081E+00
1.0941581564E+00 1.1668879335E+00 1.2355775018E+00 1.3000533282E+00
1.3601666137E+00 1.4157932494E+00 1.4668335083E+00 1.5132114869E+00
1.5548743146E+00 1.5917911523E+00 1.6239520041E+00 1.6513663710E+00
1.6740617741E+00 1.6920821800E+00 1.7054863600E+00 1.7143462161E+00
1.7187451061E+00 1.7187762010E+00 1.7145409030E+00 1.7061473560E+00
1.6937090726E+00 1.6773437017E+00 1.6571719577E+00 1.6333167270E+00
1.6059023633E+00 1.5750541821E+00 1.5408981554E+00 1.5035608069E+00
1.4631693022E+00 1.4198517236E+00 1.3737375145E+00 1.3249580771E+00
1.2736474983E+00 1.2199433808E+00 1.1639877507E+00 1.1059280094E+00
1.0459179002E+00 9.8411845418E-01 9.2069888229E-01 8.5583738109E-01
7.8972181832E-01 7.2255026840E-01 6.5453136895E-01 5.8588447283E-01
5.1683957366E-01 4.4763698660E-01 3.7852677104E-01 3.0976788637E-01
2.4162707745E-01 1.7437749165E-01 1.0829703490E-01 4.3666479809E-02
-1.9232655911E-02 -8.0120436830E-02 -1.3872101452E-01 -1.9476527631E-01
-2.4799360080E-01 -2.9815867917E-01 -3.4502835875E-01 -3.8838846256E-01
-4.2804553766E-01 -4.6382948415E-01 -4.9559601684E-01 -5.2322891285E-01