<UPF version="2.0.1"><PP_INFO>This pseudopotential file has been produced using the code
ONCVPSP (Optimized Norm-Conservinng Vanderbilt PSeudopotential)
scalar-relativistic version 3.3.0 08/16/2017 by D. R. Hamann
The code is available through a link at URL www.mat-simresearch.com.
Documentation with the package provides a full discription of the
input data below.
While it is not required under the terms of the GNU GPL, it is
suggested that you cite D. R. Hamann, Phys. Rev. B 88, 085117 (2013)
in any publication using these pseudopotentials.<PP_INPUTFILE>
# ATOM AND REFERENCE CONFIGURATION
# atsym z nc nv iexc psfile
He 2.00 0 1 -116133 upf
#
# n l f energy (Ha)
1 0 2.00
#
# PSEUDOPOTENTIAL AND OPTIMIZATION
# lmax
1
#
# l, rc, ep, ncon, nbas, qcut
0 1.25000 -0.56958 4 8 9.40000
1 1.13000 0.05000 4 7 9.40000
#
# LOCAL POTENTIAL
# lloc, lpopt, rc(5), dvloc0
4 5 1.00000 0.00000
#
# VANDERBILT-KLEINMAN-BYLANDER PROJECTORs
# l, nproj, debl
0 2 1.00000
1 1 1.00000
#
# MODEL CORE CHARGE
# icmod, fcfact, rcfact
0 0.00000 0.00000
#
# LOG DERIVATIVE ANALYSIS
# epsh1, epsh2, depsh
-12.00 12.00 0.02
#
# OUTPUT GRID
# rlmax, drl
6.00 0.01
#
# TEST CONFIGURATIONS
# ncnf
0
# nvcnf
# n l f</PP_INPUTFILE></PP_INFO><PP_HEADER generated="Generated using ONCVPSP code by D. R. Hamann" author="anonymous" date="180301" comment="" element="He" pseudo_type="NC" relativistic="scalar" is_ultrasoft="F" is_paw="F" is_coulomb="F" has_so="F" has_wfc="F" has_gipaw="F" core_correction="F" functional="PBESOL" z_valence="    2.00" total_psenergy="  -5.65130000089E+00" rho_cutoff="   7.31000000000E+00" l_max="1" l_local="-1" mesh_size="   732" number_of_wfc="1" number_of_proj="3"/><PP_MESH><PP_R type="real" size=" 732" columns="8">
0.0000 0.0100 0.0200 0.0300 0.0400 0.0500 0.0600 0.0700
0.0800 0.0900 0.1000 0.1100 0.1200 0.1300 0.1400 0.1500
0.1600 0.1700 0.1800 0.1900 0.2000 0.2100 0.2200 0.2300
0.2400 0.2500 0.2600 0.2700 0.2800 0.2900 0.3000 0.3100
0.3200 0.3300 0.3400 0.3500 0.3600 0.3700 0.3800 0.3900
0.4000 0.4100 0.4200 0.4300 0.4400 0.4500 0.4600 0.4700
0.4800 0.4900 0.5000 0.5100 0.5200 0.5300 0.5400 0.5500
0.5600 0.5700 0.5800 0.5900 0.6000 0.6100 0.6200 0.6300
0.6400 0.6500 0.6600 0.6700 0.6800 0.6900 0.7000 0.7100
0.7200 0.7300 0.7400 0.7500 0.7600 0.7700 0.7800 0.7900
0.8000 0.8100 0.8200 0.8300 0.8400 0.8500 0.8600 0.8700
0.8800 0.8900 0.9000 0.9100 0.9200 0.9300 0.9400 0.9500
0.9600 0.9700 0.9800 0.9900 1.0000 1.0100 1.0200 1.0300
1.0400 1.0500 1.0600 1.0700 1.0800 1.0900 1.1000 1.1100
1.1200 1.1300 1.1400 1.1500 1.1600 1.1700 1.1800 1.1900
1.2000 1.2100 1.2200 1.2300 1.2400 1.2500 1.2600 1.2700
1.2800 1.2900 1.3000 1.3100 1.3200 1.3300 1.3400 1.3500
1.3600 1.3700 1.3800 1.3900 1.4000 1.4100 1.4200 1.4300
1.4400 1.4500 1.4600 1.4700 1.4800 1.4900 1.5000 1.5100
1.5200 1.5300 1.5400 1.5500 1.5600 1.5700 1.5800 1.5900
1.6000 1.6100 1.6200 1.6300 1.6400 1.6500 1.6600 1.6700
1.6800 1.6900 1.7000 1.7100 1.7200 1.7300 1.7400 1.7500
1.7600 1.7700 1.7800 1.7900 1.8000 1.8100 1.8200 1.8300
1.8400 1.8500 1.8600 1.8700 1.8800 1.8900 1.9000 1.9100
1.9200 1.9300 1.9400 1.9500 1.9600 1.9700 1.9800 1.9900
2.0000 2.0100 2.0200 2.0300 2.0400 2.0500 2.0600 2.0700
2.0800 2.0900 2.1000 2.1100 2.1200 2.1300 2.1400 2.1500
2.1600 2.1700 2.1800 2.1900 2.2000 2.2100 2.2200 2.2300
2.2400 2.2500 2.2600 2.2700 2.2800 2.2900 2.3000 2.3100
2.3200 2.3300 2.3400 2.3500 2.3600 2.3700 2.3800 2.3900
2.4000 2.4100 2.4200 2.4300 2.4400 2.4500 2.4600 2.4700
2.4800 2.4900 2.5000 2.5100 2.5200 2.5300 2.5400 2.5500
2.5600 2.5700 2.5800 2.5900 2.6000 2.6100 2.6200 2.6300
2.6400 2.6500 2.6600 2.6700 2.6800 2.6900 2.7000 2.7100
2.7200 2.7300 2.7400 2.7500 2.7600 2.7700 2.7800 2.7900
2.8000 2.8100 2.8200 2.8300 2.8400 2.8500 2.8600 2.8700
2.8800 2.8900 2.9000 2.9100 2.9200 2.9300 2.9400 2.9500
2.9600 2.9700 2.9800 2.9900 3.0000 3.0100 3.0200 3.0300
3.0400 3.0500 3.0600 3.0700 3.0800 3.0900 3.1000 3.1100
3.1200 3.1300 3.1400 3.1500 3.1600 3.1700 3.1800 3.1900
3.2000 3.2100 3.2200 3.2300 3.2400 3.2500 3.2600 3.2700
3.2800 3.2900 3.3000 3.3100 3.3200 3.3300 3.3400 3.3500
3.3600 3.3700 3.3800 3.3900 3.4000 3.4100 3.4200 3.4300
3.4400 3.4500 3.4600 3.4700 3.4800 3.4900 3.5000 3.5100
3.5200 3.5300 3.5400 3.5500 3.5600 3.5700 3.5800 3.5900
3.6000 3.6100 3.6200 3.6300 3.6400 3.6500 3.6600 3.6700
3.6800 3.6900 3.7000 3.7100 3.7200 3.7300 3.7400 3.7500
3.7600 3.7700 3.7800 3.7900 3.8000 3.8100 3.8200 3.8300
3.8400 3.8500 3.8600 3.8700 3.8800 3.8900 3.9000 3.9100
3.9200 3.9300 3.9400 3.9500 3.9600 3.9700 3.9800 3.9900
4.0000 4.0100 4.0200 4.0300 4.0400 4.0500 4.0600 4.0700
4.0800 4.0900 4.1000 4.1100 4.1200 4.1300 4.1400 4.1500
4.1600 4.1700 4.1800 4.1900 4.2000 4.2100 4.2200 4.2300
4.2400 4.2500 4.2600 4.2700 4.2800 4.2900 4.3000 4.3100
4.3200 4.3300 4.3400 4.3500 4.3600 4.3700 4.3800 4.3900
4.4000 4.4100 4.4200 4.4300 4.4400 4.4500 4.4600 4.4700
4.4800 4.4900 4.5000 4.5100 4.5200 4.5300 4.5400 4.5500
4.5600 4.5700 4.5800 4.5900 4.6000 4.6100 4.6200 4.6300
4.6400 4.6500 4.6600 4.6700 4.6800 4.6900 4.7000 4.7100
4.7200 4.7300 4.7400 4.7500 4.7600 4.7700 4.7800 4.7900
4.8000 4.8100 4.8200 4.8300 4.8400 4.8500 4.8600 4.8700
4.8800 4.8900 4.9000 4.9100 4.9200 4.9300 4.9400 4.9500
4.9600 4.9700 4.9800 4.9900 5.0000 5.0100 5.0200 5.0300
5.0400 5.0500 5.0600 5.0700 5.0800 5.0900 5.1000 5.1100
5.1200 5.1300 5.1400 5.1500 5.1600 5.1700 5.1800 5.1900
5.2000 5.2100 5.2200 5.2300 5.2400 5.2500 5.2600 5.2700
5.2800 5.2900 5.3000 5.3100 5.3200 5.3300 5.3400 5.3500
5.3600 5.3700 5.3800 5.3900 5.4000 5.4100 5.4200 5.4300
5.4400 5.4500 5.4600 5.4700 5.4800 5.4900 5.5000 5.5100
5.5200 5.5300 5.5400 5.5500 5.5600 5.5700 5.5800 5.5900
5.6000 5.6100 5.6200 5.6300 5.6400 5.6500 5.6600 5.6700
5.6800 5.6900 5.7000 5.7100 5.7200 5.7300 5.7400 5.7500
5.7600 5.7700 5.7800 5.7900 5.8000 5.8100 5.8200 5.8300
5.8400 5.8500 5.8600 5.8700 5.8800 5.8900 5.9000 5.9100
5.9200 5.9300 5.9400 5.9500 5.9600 5.9700 5.9800 5.9900
6.0000 6.0100 6.0200 6.0300 6.0400 6.0500 6.0600 6.0700
6.0800 6.0900 6.1000 6.1100 6.1200 6.1300 6.1400 6.1500
6.1600 6.1700 6.1800 6.1900 6.2000 6.2100 6.2200 6.2300
6.2400 6.2500 6.2600 6.2700 6.2800 6.2900 6.3000 6.3100
6.3200 6.3300 6.3400 6.3500 6.3600 6.3700 6.3800 6.3900
6.4000 6.4100 6.4200 6.4300 6.4400 6.4500 6.4600 6.4700
6.4800 6.4900 6.5000 6.5100 6.5200 6.5300 6.5400 6.5500
6.5600 6.5700 6.5800 6.5900 6.6000 6.6100 6.6200 6.6300
6.6400 6.6500 6.6600 6.6700 6.6800 6.6900 6.7000 6.7100
6.7200 6.7300 6.7400 6.7500 6.7600 6.7700 6.7800 6.7900
6.8000 6.8100 6.8200 6.8300 6.8400 6.8500 6.8600 6.8700
6.8800 6.8900 6.9000 6.9100 6.9200 6.9300 6.9400 6.9500
6.9600 6.9700 6.9800 6.9900 7.0000 7.0100 7.0200 7.0300
7.0400 7.0500 7.0600 7.0700 7.0800 7.0900 7.1000 7.1100
7.1200 7.1300 7.1400 7.1500 7.1600 7.1700 7.1800 7.1900
7.2000 7.2100 7.2200 7.2300 7.2400 7.2500 7.2600 7.2700
7.2800 7.2900 7.3000 7.3100</PP_R><PP_RAB type="real" size=" 732" columns="8">
0.0100 0.0100 0.0100 0.0100 0.0100 0.0100 0.0100 0.0100
0.0100 0.0100 0.0100 0.0100 0.0100 0.0100 0.0100 0.0100
0.0100 0.0100 0.0100 0.0100 0.0100 0.0100 0.0100 0.0100
0.0100 0.0100 0.0100 0.0100 0.0100 0.0100 0.0100 0.0100
0.0100 0.0100 0.0100 0.0100 0.0100 0.0100 0.0100 0.0100
0.0100 0.0100 0.0100 0.0100 0.0100 0.0100 0.0100 0.0100
0.0100 0.0100 0.0100 0.0100 0.0100 0.0100 0.0100 0.0100
0.0100 0.0100 0.0100 0.0100 0.0100 0.0100 0.0100 0.0100
0.0100 0.0100 0.0100 0.0100 0.0100 0.0100 0.0100 0.0100
0.0100 0.0100 0.0100 0.0100 0.0100 0.0100 0.0100 0.0100
0.0100 0.0100 0.0100 0.0100 0.0100 0.0100 0.0100 0.0100
0.0100 0.0100 0.0100 0.0100 0.0100 0.0100 0.0100 0.0100
0.0100 0.0100 0.0100 0.0100 0.0100 0.0100 0.0100 0.0100
0.0100 0.0100 0.0100 0.0100 0.0100 0.0100 0.0100 0.0100
0.0100 0.0100 0.0100 0.0100 0.0100 0.0100 0.0100 0.0100
0.0100 0.0100 0.0100 0.0100 0.0100 0.0100 0.0100 0.0100
0.0100 0.0100 0.0100 0.0100 0.0100 0.0100 0.0100 0.0100
0.0100 0.0100 0.0100 0.0100 0.0100 0.0100 0.0100 0.0100
0.0100 0.0100 0.0100 0.0100 0.0100 0.0100 0.0100 0.0100
0.0100 0.0100 0.0100 0.0100 0.0100 0.0100 0.0100 0.0100
0.0100 0.0100 0.0100 0.0100 0.0100 0.0100 0.0100 0.0100
0.0100 0.0100 0.0100 0.0100 0.0100 0.0100 0.0100 0.0100
0.0100 0.0100 0.0100 0.0100 0.0100 0.0100 0.0100 0.0100
0.0100 0.0100 0.0100 0.0100 0.0100 0.0100 0.0100 0.0100
0.0100 0.0100 0.0100 0.0100 0.0100 0.0100 0.0100 0.0100
0.0100 0.0100 0.0100 0.0100 0.0100 0.0100 0.0100 0.0100
0.0100 0.0100 0.0100 0.0100 0.0100 0.0100 0.0100 0.0100
0.0100 0.0100 0.0100 0.0100 0.0100 0.0100 0.0100 0.0100
0.0100 0.0100 0.0100 0.0100 0.0100 0.0100 0.0100 0.0100
0.0100 0.0100 0.0100 0.0100 0.0100 0.0100 0.0100 0.0100
0.0100 0.0100 0.0100 0.0100 0.0100 0.0100 0.0100 0.0100
0.0100 0.0100 0.0100 0.0100 0.0100 0.0100 0.0100 0.0100
0.0100 0.0100 0.0100 0.0100 0.0100 0.0100 0.0100 0.0100
0.0100 0.0100 0.0100 0.0100 0.0100 0.0100 0.0100 0.0100
0.0100 0.0100 0.0100 0.0100 0.0100 0.0100 0.0100 0.0100
0.0100 0.0100 0.0100 0.0100 0.0100 0.0100 0.0100 0.0100
0.0100 0.0100 0.0100 0.0100 0.0100 0.0100 0.0100 0.0100
0.0100 0.0100 0.0100 0.0100 0.0100 0.0100 0.0100 0.0100
0.0100 0.0100 0.0100 0.0100 0.0100 0.0100 0.0100 0.0100
0.0100 0.0100 0.0100 0.0100 0.0100 0.0100 0.0100 0.0100
0.0100 0.0100 0.0100 0.0100 0.0100 0.0100 0.0100 0.0100
0.0100 0.0100 0.0100 0.0100 0.0100 0.0100 0.0100 0.0100
0.0100 0.0100 0.0100 0.0100 0.0100 0.0100 0.0100 0.0100
0.0100 0.0100 0.0100 0.0100 0.0100 0.0100 0.0100 0.0100
0.0100 0.0100 0.0100 0.0100 0.0100 0.0100 0.0100 0.0100
0.0100 0.0100 0.0100 0.0100 0.0100 0.0100 0.0100 0.0100
0.0100 0.0100 0.0100 0.0100 0.0100 0.0100 0.0100 0.0100
0.0100 0.0100 0.0100 0.0100 0.0100 0.0100 0.0100 0.0100
0.0100 0.0100 0.0100 0.0100 0.0100 0.0100 0.0100 0.0100
0.0100 0.0100 0.0100 0.0100 0.0100 0.0100 0.0100 0.0100
0.0100 0.0100 0.0100 0.0100 0.0100 0.0100 0.0100 0.0100
0.0100 0.0100 0.0100 0.0100 0.0100 0.0100 0.0100 0.0100
0.0100 0.0100 0.0100 0.0100 0.0100 0.0100 0.0100 0.0100
0.0100 0.0100 0.0100 0.0100 0.0100 0.0100 0.0100 0.0100
0.0100 0.0100 0.0100 0.0100 0.0100 0.0100 0.0100 0.0100
0.0100 0.0100 0.0100 0.0100 0.0100 0.0100 0.0100 0.0100
0.0100 0.0100 0.0100 0.0100 0.0100 0.0100 0.0100 0.0100
0.0100 0.0100 0.0100 0.0100 0.0100 0.0100 0.0100 0.0100
0.0100 0.0100 0.0100 0.0100 0.0100 0.0100 0.0100 0.0100
0.0100 0.0100 0.0100 0.0100 0.0100 0.0100 0.0100 0.0100
0.0100 0.0100 0.0100 0.0100 0.0100 0.0100 0.0100 0.0100
0.0100 0.0100 0.0100 0.0100 0.0100 0.0100 0.0100 0.0100
0.0100 0.0100 0.0100 0.0100 0.0100 0.0100 0.0100 0.0100
0.0100 0.0100 0.0100 0.0100 0.0100 0.0100 0.0100 0.0100
0.0100 0.0100 0.0100 0.0100 0.0100 0.0100 0.0100 0.0100
0.0100 0.0100 0.0100 0.0100 0.0100 0.0100 0.0100 0.0100
0.0100 0.0100 0.0100 0.0100 0.0100 0.0100 0.0100 0.0100
0.0100 0.0100 0.0100 0.0100 0.0100 0.0100 0.0100 0.0100
0.0100 0.0100 0.0100 0.0100 0.0100 0.0100 0.0100 0.0100
0.0100 0.0100 0.0100 0.0100 0.0100 0.0100 0.0100 0.0100
0.0100 0.0100 0.0100 0.0100 0.0100 0.0100 0.0100 0.0100
0.0100 0.0100 0.0100 0.0100 0.0100 0.0100 0.0100 0.0100
0.0100 0.0100 0.0100 0.0100 0.0100 0.0100 0.0100 0.0100
0.0100 0.0100 0.0100 0.0100 0.0100 0.0100 0.0100 0.0100
0.0100 0.0100 0.0100 0.0100 0.0100 0.0100 0.0100 0.0100
0.0100 0.0100 0.0100 0.0100 0.0100 0.0100 0.0100 0.0100
0.0100 0.0100 0.0100 0.0100 0.0100 0.0100 0.0100 0.0100
0.0100 0.0100 0.0100 0.0100 0.0100 0.0100 0.0100 0.0100
0.0100 0.0100 0.0100 0.0100 0.0100 0.0100 0.0100 0.0100
0.0100 0.0100 0.0100 0.0100 0.0100 0.0100 0.0100 0.0100
0.0100 0.0100 0.0100 0.0100 0.0100 0.0100 0.0100 0.0100
0.0100 0.0100 0.0100 0.0100 0.0100 0.0100 0.0100 0.0100
0.0100 0.0100 0.0100 0.0100 0.0100 0.0100 0.0100 0.0100
0.0100 0.0100 0.0100 0.0100 0.0100 0.0100 0.0100 0.0100
0.0100 0.0100 0.0100 0.0100 0.0100 0.0100 0.0100 0.0100
0.0100 0.0100 0.0100 0.0100 0.0100 0.0100 0.0100 0.0100
0.0100 0.0100 0.0100 0.0100 0.0100 0.0100 0.0100 0.0100
0.0100 0.0100 0.0100 0.0100 0.0100 0.0100 0.0100 0.0100
0.0100 0.0100 0.0100 0.0100 0.0100 0.0100 0.0100 0.0100
0.0100 0.0100 0.0100 0.0100 0.0100 0.0100 0.0100 0.0100
0.0100 0.0100 0.0100 0.0100 0.0100 0.0100 0.0100 0.0100
0.0100 0.0100 0.0100 0.0100</PP_RAB></PP_MESH><PP_LOCAL type="real" size=" 732" columns="4">
-8.8413103898E+00 -8.8401605222E+00 -8.8367134186E+00 -8.8309772893E+00
-8.8229656457E+00 -8.8126971768E+00 -8.8001955538E+00 -8.7854891773E+00
-8.7686108814E+00 -8.7495976017E+00 -8.7284900160E+00 -8.7053321657E+00
-8.6801710657E+00 -8.6530563107E+00 -8.6240396855E+00 -8.5931747853E+00
-8.5605166517E+00 -8.5261214294E+00 -8.4900460472E+00 -8.4523479260E+00
-8.4130847147E+00 -8.3723140564E+00 -8.3300933830E+00 -8.2864797397E+00
-8.2415296357E+00 -8.1952989213E+00 -8.1478426887E+00 -8.0992151943E+00
-8.0494697992E+00 -7.9986589280E+00 -7.9468340403E+00 -7.8940456156E+00
-7.8403431473E+00 -7.7857751452E+00 -7.7303891443E+00 -7.6742317184E+00
-7.6173484974E+00 -7.5597841867E+00 -7.5015825885E+00 -7.4427866240E+00
-7.3834383556E+00 -7.3235790087E+00 -7.2632489943E+00 -7.2024879297E+00
-7.1413346589E+00 -7.0798272732E+00 -7.0180031299E+00 -6.9558988712E+00
-6.8935504424E+00 -6.8309931101E+00 -6.7682614797E+00 -6.7053895126E+00
-6.6424105443E+00 -6.5793573012E+00 -6.5162619183E+00 -6.4531559562E+00
-6.3900704185E+00 -6.3270357680E+00 -6.2640819439E+00 -6.2012383765E+00
-6.1385340026E+00 -6.0759972786E+00 -6.0136561925E+00 -5.9515382737E+00
-5.8896706013E+00 -5.8280798085E+00 -5.7667920853E+00 -5.7058331776E+00
-5.6452283817E+00 -5.5850025366E+00 -5.5251800107E+00 -5.4657846854E+00
-5.4068399336E+00 -5.3483685940E+00 -5.2903929408E+00 -5.2329346499E+00
-5.1760147600E+00 -5.1196536300E+00 -5.0638708930E+00 -5.0086854069E+00
-4.9541152019E+00 -4.9001774251E+00 -4.8468882838E+00 -4.7942629859E+00
-4.7423156800E+00 -4.6910593934E+00 -4.6405059707E+00 -4.5906660111E+00
-4.5415488061E+00 -4.4931622770E+00 -4.4455129127E+00 -4.3986057080E+00
-4.3524441013E+00 -4.3070299130E+00 -4.2623632830E+00 -4.2184426076E+00
-4.1752644755E+00 -4.1328236014E+00 -4.0911127578E+00 -4.0501227021E+00
-4.0098421327E+00 -3.9702574834E+00 -3.9313533791E+00 -3.8931142606E+00
-3.8555258185E+00 -3.8185749732E+00 -3.7822497719E+00 -3.7465393163E+00
-3.7114336750E+00 -3.6769237884E+00 -3.6430013699E+00 -3.6096588002E+00
-3.5768890176E+00 -3.5446854037E+00 -3.5130416658E+00 -3.4819517165E+00
-3.4514095533E+00 -3.4214091389E+00 -3.3919442826E+00 -3.3630085351E+00
-3.3345950840E+00 -3.3066966173E+00 -3.2793052620E+00 -3.2524127538E+00
-3.2260107990E+00 -3.2000897847E+00 -3.1746350747E+00 -3.1496208829E+00
-3.1250168873E+00 -3.1007958828E+00 -3.0769444836E+00 -3.0534554348E+00
-3.0303227893E+00 -3.0075384383E+00 -2.9850939211E+00 -2.9629819136E+00
-2.9411951094E+00 -2.9197263608E+00 -2.8985687568E+00 -2.8777155823E+00
-2.8571603135E+00 -2.8368966119E+00 -2.8169183175E+00 -2.7972194425E+00
-2.7777941657E+00 -2.7586368261E+00 -2.7397419182E+00 -2.7211040860E+00
-2.7027181184E+00 -2.6845789443E+00 -2.6666816277E+00 -2.6490213632E+00
-2.6315934722E+00 -2.6143933982E+00 -2.5974167031E+00 -2.5806590634E+00
-2.5641162663E+00 -2.5477842065E+00 -2.5316588825E+00 -2.5157363936E+00
-2.5000129366E+00 -2.4844848027E+00 -2.4691483747E+00 -2.4540001242E+00
-2.4390366089E+00 -2.4242544700E+00 -2.4096504294E+00 -2.3952212877E+00
-2.3809639218E+00 -2.3668752822E+00 -2.3529523914E+00 -2.3391923415E+00
-2.3255922922E+00 -2.3121494689E+00 -2.2988611607E+00 -2.2857247189E+00
-2.2727375547E+00 -2.2598971380E+00 -2.2472009955E+00 -2.2346467093E+00
-2.2222319150E+00 -2.2099543005E+00 -2.1978116048E+00 -2.1858016160E+00
-2.1739221703E+00 -2.1621711510E+00 -2.1505464866E+00 -2.1390461500E+00
-2.1276681573E+00 -2.1164105666E+00 -2.1052714768E+00 -2.0942490266E+00
-2.0833413935E+00 -2.0725467929E+00 -2.0618634769E+00 -2.0512897334E+00
-2.0408238854E+00 -2.0304642897E+00 -2.0202093365E+00 -2.0100574483E+00
-2.0000070793E+00 -1.9900567141E+00 -1.9802048677E+00 -1.9704500841E+00
-1.9607909360E+00 -1.9512260238E+00 -1.9417539753E+00 -1.9323734446E+00
-1.9230831118E+00 -1.9138816822E+00 -1.9047678859E+00 -1.8957404768E+00
-1.8867982325E+00 -1.8779399536E+00 -1.8691644631E+00 -1.8604706057E+00
-1.8518572478E+00 -1.8433232764E+00 -1.8348675991E+00 -1.8264891435E+00
-1.8181868565E+00 -1.8099597042E+00 -1.8018066713E+00 -1.7937267606E+00
-1.7857189930E+00 -1.7777824065E+00 -1.7699160563E+00 -1.7621190142E+00
-1.7543903681E+00 -1.7467292223E+00 -1.7391346961E+00 -1.7316059245E+00
-1.7241420571E+00 -1.7167422584E+00 -1.7094057069E+00 -1.7021315953E+00
-1.6949191298E+00 -1.6877675301E+00 -1.6806760291E+00 -1.6736438722E+00
-1.6666703178E+00 -1.6597546364E+00 -1.6528961105E+00 -1.6460940345E+00
-1.6393477143E+00 -1.6326564673E+00 -1.6260196218E+00 -1.6194365170E+00
-1.6129065029E+00 -1.6064289398E+00 -1.6000031983E+00 -1.5936286590E+00
-1.5873047124E+00 -1.5810307585E+00 -1.5748062069E+00 -1.5686304763E+00
-1.5625029947E+00 -1.5564231987E+00 -1.5503905339E+00 -1.5444044544E+00
-1.5384644226E+00 -1.5325699093E+00 -1.5267203931E+00 -1.5209153609E+00
-1.5151543071E+00 -1.5094367338E+00 -1.5037621507E+00 -1.4981300746E+00
-1.4925400298E+00 -1.4869915474E+00 -1.4814841657E+00 -1.4760174296E+00
-1.4705908908E+00 -1.4652041077E+00 -1.4598566448E+00 -1.4545480732E+00
-1.4492779702E+00 -1.4440459191E+00 -1.4388515093E+00 -1.4336943360E+00
-1.4285740002E+00 -1.4234901087E+00 -1.4184422736E+00 -1.4134301128E+00
-1.4084532494E+00 -1.4035113119E+00 -1.3986039338E+00 -1.3937307539E+00
-1.3888914159E+00 -1.3840855686E+00 -1.3793128654E+00 -1.3745729647E+00
-1.3698655294E+00 -1.3651902270E+00 -1.3605467298E+00 -1.3559347141E+00
-1.3513538611E+00 -1.3468038557E+00 -1.3422843876E+00 -1.3377951502E+00
-1.3333358413E+00 -1.3289061626E+00 -1.3245058196E+00 -1.3201345220E+00
-1.3157919831E+00 -1.3114779199E+00 -1.3071920534E+00 -1.3029341080E+00
-1.2987038116E+00 -1.2945008959E+00 -1.2903250958E+00 -1.2861761498E+00
-1.2820537997E+00 -1.2779577905E+00 -1.2738878705E+00 -1.2698437914E+00
-1.2658253076E+00 -1.2618321771E+00 -1.2578641606E+00 -1.2539210219E+00
-1.2500025278E+00 -1.2461084480E+00 -1.2422385550E+00 -1.2383926240E+00
-1.2345704334E+00 -1.2307717638E+00 -1.2269963989E+00 -1.2232441248E+00
-1.2195147304E+00 -1.2158080069E+00 -1.2121237484E+00 -1.2084617511E+00
-1.2048218139E+00 -1.2012037381E+00 -1.1976073273E+00 -1.1940323875E+00
-1.1904787270E+00 -1.1869461563E+00 -1.1834344883E+00 -1.1799435379E+00
-1.1764731224E+00 -1.1730230611E+00 -1.1695931755E+00 -1.1661832890E+00
-1.1627932274E+00 -1.1594228181E+00 -1.1560718907E+00 -1.1527402769E+00
-1.1494278102E+00 -1.1461343260E+00 -1.1428596614E+00 -1.1396036558E+00
-1.1363661501E+00 -1.1331469870E+00 -1.1299460111E+00 -1.1267630687E+00
-1.1235980078E+00 -1.1204506782E+00 -1.1173209313E+00 -1.1142086202E+00
-1.1111135995E+00 -1.1080357255E+00 -1.1049748563E+00 -1.1019308511E+00
-1.0989035712E+00 -1.0958928788E+00 -1.0928986382E+00 -1.0899207149E+00
-1.0869589757E+00 -1.0840132892E+00 -1.0810835251E+00 -1.0781695548E+00
-1.0752712508E+00 -1.0723884872E+00 -1.0695211392E+00 -1.0666690837E+00
-1.0638321985E+00 -1.0610103629E+00 -1.0582034576E+00 -1.0554113643E+00
-1.0526339660E+00 -1.0498711471E+00 -1.0471227932E+00 -1.0443887907E+00
-1.0416690278E+00 -1.0389633934E+00 -1.0362717776E+00 -1.0335940719E+00
-1.0309301687E+00 -1.0282799615E+00 -1.0256433450E+00 -1.0230202148E+00
-1.0204104679E+00 -1.0178140020E+00 -1.0152307161E+00 -1.0126605099E+00
-1.0101032845E+00 -1.0075589417E+00 -1.0050273844E+00 -1.0025085166E+00
-1.0000022429E+00 -9.9750846931E-01 -9.9502710242E-01 -9.9255804991E-01
-9.9010122033E-01 -9.8765652314E-01 -9.8522386870E-01 -9.8280316824E-01
-9.8039433386E-01 -9.7799727854E-01 -9.7561191608E-01 -9.7323816113E-01
-9.7087592919E-01 -9.6852513653E-01 -9.6618570028E-01 -9.6385753835E-01
-9.6154056941E-01 -9.5923471297E-01 -9.5693988925E-01 -9.5465601927E-01
-9.5238302479E-01 -9.5012082831E-01 -9.4786935307E-01 -9.4562852304E-01
-9.4339826289E-01 -9.4117849803E-01 -9.3896915452E-01 -9.3677015917E-01
-9.3458143944E-01 -9.3240292347E-01 -9.3023454008E-01 -9.2807621873E-01
-9.2592788956E-01 -9.2378948333E-01 -9.2166093146E-01 -9.1954216598E-01
-9.1743311956E-01 -9.1533372547E-01 -9.1324391762E-01 -9.1116363048E-01
-9.0909279915E-01 -9.0703135930E-01 -9.0497924719E-01 -9.0293639966E-01
-9.0090275410E-01 -8.9887824848E-01 -8.9686282133E-01 -8.9485641171E-01
-8.9285895924E-01 -8.9087040407E-01 -8.8889068690E-01 -8.8691974892E-01
-8.8495753188E-01 -8.8300397802E-01 -8.8105903009E-01 -8.7912263136E-01
-8.7719472558E-01 -8.7527525699E-01 -8.7336417034E-01 -8.7146141084E-01
-8.6956692418E-01 -8.6768065654E-01 -8.6580255453E-01 -8.6393256525E-01
-8.6207063624E-01 -8.6021671552E-01 -8.5837075152E-01 -8.5653269313E-01
-8.5470248967E-01 -8.5288009090E-01 -8.5106544700E-01 -8.4925850859E-01
-8.4745922667E-01 -8.4566755270E-01 -8.4388343853E-01 -8.4210683640E-01
-8.4033769897E-01 -8.3857597930E-01 -8.3682163084E-01 -8.3507460741E-01
-8.3333486323E-01 -8.3160235291E-01 -8.2987703142E-01 -8.2815885411E-01
-8.2644777670E-01 -8.2474375527E-01 -8.2304674627E-01 -8.2135670651E-01
-8.1967359313E-01 -8.1799736364E-01 -8.1632797590E-01 -8.1466538812E-01
-8.1300955881E-01 -8.1136044686E-01 -8.0971801148E-01 -8.0808221220E-01
-8.0645300888E-01 -8.0483036171E-01 -8.0321423120E-01 -8.0160457816E-01
-8.0000136374E-01 -7.9840454937E-01 -7.9681409682E-01 -7.9522996813E-01
-7.9365212567E-01 -7.9208053210E-01 -7.9051515036E-01 -7.8895594369E-01
-7.8740287564E-01 -7.8585591003E-01 -7.8431501094E-01 -7.8278014278E-01
-7.8125127020E-01 -7.7972835815E-01 -7.7821137182E-01 -7.7670027671E-01
-7.7519503856E-01 -7.7369562339E-01 -7.7220199748E-01 -7.7071412735E-01
-7.6923197981E-01 -7.6775552190E-01 -7.6628472092E-01 -7.6481954443E-01
-7.6335996023E-01 -7.6190593635E-01 -7.6045744108E-01 -7.5901444296E-01
-7.5757691075E-01 -7.5614481346E-01 -7.5471812031E-01 -7.5329680078E-01
-7.5188082457E-01 -7.5047016159E-01 -7.4906478201E-01 -7.4766465619E-01
-7.4626975473E-01 -7.4488004844E-01 -7.4349550836E-01 -7.4211610573E-01
-7.4074181200E-01 -7.3937259886E-01 -7.3800843817E-01 -7.3664930203E-01
-7.3529516272E-01 -7.3394599273E-01 -7.3260176478E-01 -7.3126245174E-01
-7.2992802672E-01 -7.2859846301E-01 -7.2727373408E-01 -7.2595381361E-01
-7.2463867548E-01 -7.2332829374E-01 -7.2202264262E-01 -7.2072169657E-01
-7.1942543019E-01 -7.1813381828E-01 -7.1684683582E-01 -7.1556445795E-01
-7.1428666002E-01 -7.1301341753E-01 -7.1174470616E-01 -7.1048050178E-01
-7.0922078039E-01 -7.0796551822E-01 -7.0671469161E-01 -7.0546827709E-01
-7.0422625138E-01 -7.0298859132E-01 -7.0175527394E-01 -7.0052627642E-01
-6.9930157611E-01 -6.9808115050E-01 -6.9686497726E-01 -6.9565303421E-01
-6.9444529930E-01 -6.9324175066E-01 -6.9204236656E-01 -6.9084712542E-01
-6.8965600582E-01 -6.8846898646E-01 -6.8728604623E-01 -6.8610716412E-01
-6.8493231929E-01 -6.8376149104E-01 -6.8259465880E-01 -6.8143180215E-01
-6.8027290081E-01 -6.7911793463E-01 -6.7796688361E-01 -6.7681972786E-01
-6.7567644765E-01 -6.7453702337E-01 -6.7340143555E-01 -6.7226966485E-01
-6.7114169204E-01 -6.7001749805E-01 -6.6889706392E-01 -6.6778037082E-01
-6.6666740004E-01 -6.6555813301E-01 -6.6445255125E-01 -6.6335063645E-01
-6.6225237039E-01 -6.6115773497E-01 -6.6006671222E-01 -6.5897928428E-01
-6.5789543343E-01 -6.5681514203E-01 -6.5573839258E-01 -6.5466516769E-01
-6.5359545009E-01 -6.5252922260E-01 -6.5146646818E-01 -6.5040716989E-01
-6.4935131089E-01 -6.4829887445E-01 -6.4724984398E-01 -6.4620420295E-01
-6.4516193496E-01 -6.4412302373E-01 -6.4308745307E-01 -6.4205520688E-01
-6.4102626918E-01 -6.4000062410E-01 -6.3897825585E-01 -6.3795914875E-01
-6.3694328723E-01 -6.3593065581E-01 -6.3492123910E-01 -6.3391502182E-01
-6.3291198878E-01 -6.3191212490E-01 -6.3091541518E-01 -6.2992184471E-01
-6.2893139868E-01 -6.2794406239E-01 -6.2695982121E-01 -6.2597866060E-01
-6.2500056614E-01 -6.2402552346E-01 -6.2305351831E-01 -6.2208453652E-01
-6.2111856400E-01 -6.2015558675E-01 -6.1919559087E-01 -6.1823856253E-01
-6.1728448799E-01 -6.1633335360E-01 -6.1538514579E-01 -6.1443985107E-01
-6.1349745603E-01 -6.1255794737E-01 -6.1162131183E-01 -6.1068753626E-01
-6.0975660757E-01 -6.0882851278E-01 -6.0790323895E-01 -6.0698077324E-01
-6.0606110290E-01 -6.0514421523E-01 -6.0423009763E-01 -6.0331873755E-01
-6.0241012255E-01 -6.0150424023E-01 -6.0060107830E-01 -5.9970062450E-01
-5.9880286668E-01 -5.9790779276E-01 -5.9701539070E-01 -5.9612564858E-01
-5.9523855450E-01 -5.9435409668E-01 -5.9347226337E-01 -5.9259304290E-01
-5.9171642369E-01 -5.9084239421E-01 -5.8997094300E-01 -5.8910205866E-01
-5.8823572988E-01 -5.8737194539E-01 -5.8651069400E-01 -5.8565196459E-01
-5.8479574609E-01 -5.8394202751E-01 -5.8309079791E-01 -5.8224204643E-01
-5.8139576226E-01 -5.8055193466E-01 -5.7971055295E-01 -5.7887160650E-01
-5.7803508476E-01 -5.7720097724E-01 -5.7636927349E-01 -5.7553996315E-01
-5.7471303589E-01 -5.7388848145E-01 -5.7306628965E-01 -5.7224645033E-01
-5.7142895343E-01 -5.7061378890E-01 -5.6980094679E-01 -5.6899041719E-01
-5.6818219023E-01 -5.6737625613E-01 -5.6657260513E-01 -5.6577122756E-01
-5.6497211377E-01 -5.6417525419E-01 -5.6338063929E-01 -5.6258825961E-01
-5.6179810572E-01 -5.6101016825E-01 -5.6022443791E-01 -5.5944090542E-01
-5.5865956158E-01 -5.5788039722E-01 -5.5710340325E-01 -5.5632857061E-01
-5.5555589028E-01 -5.5478535332E-01 -5.5401695082E-01 -5.5325067393E-01
-5.5248651383E-01 -5.5172446176E-01 -5.5096450902E-01 -5.5020664695E-01
-5.4945086691E-01 -5.4869716036E-01 -5.4794551877E-01 -5.4719593365E-01</PP_LOCAL><PP_NONLOCAL><PP_BETA.1 type="real" size=" 732" columns="4" index="1" angular_momentum="0" cutoff_radius_index=" 132" cutoff_radius="    1.3100000000E+00">
-2.3223251100E-09 1.0941907143E-01 2.1839048591E-01 3.2646972338E-01
4.3321850030E-01 5.3820779534E-01 6.4102076573E-01 7.4125552050E-01
8.3852771932E-01 9.3247296847E-01 1.0227489885E+00 1.1090375323E+00
1.1910460354E+00 1.2685089860E+00 1.3411890045E+00 1.4088776298E+00
1.4713958104E+00 1.5285941061E+00 1.5803526093E+00 1.6265805973E+00
1.6672159335E+00 1.7022242376E+00 1.7315978464E+00 1.7553545926E+00
1.7735364277E+00 1.7862079186E+00 1.7934546481E+00 1.7953815488E+00
1.7921112004E+00 1.7837821206E+00 1.7705470755E+00 1.7525714374E+00
1.7300316111E+00 1.7031135524E+00 1.6720113933E+00 1.6369261908E+00
1.5980648078E+00 1.5556389348E+00 1.5098642529E+00 1.4609597407E+00
1.4091471173E+00 1.3546504151E+00 1.2976956706E+00 1.2385107192E+00
1.1773250762E+00 1.1143698857E+00 1.0498779165E+00 9.8408358229E-01
9.1722296453E-01 8.4953381457E-01 7.8125551315E-01 7.1262896586E-01
6.4389641512E-01 5.7530115101E-01 5.0708710583E-01 4.3949832049E-01
3.7277827358E-01 3.0716906820E-01 2.4291047483E-01 1.8023883275E-01
1.1938581648E-01 6.0577077517E-02 4.0307754542E-03 -5.0043983533E-02
-1.0144877993E-01 -1.4999756165E-01 -1.9551834564E-01 -2.3785491166E-01
-2.7686845792E-01 -3.1243918729E-01 -3.4446779258E-01 -3.7287680950E-01
-3.9761180704E-01 -4.1864238633E-01 -4.3596296141E-01 -4.4959329815E-01
-4.5957879056E-01 -4.6599045803E-01 -4.6892465089E-01 -4.6850245650E-01
-4.6486880294E-01 -4.5819126243E-01 -4.4865856194E-01 -4.3647881347E-01
-4.2187748170E-01 -4.0509511178E-01 -3.8638484449E-01 -3.6600975035E-01
-3.4424001826E-01 -3.2135003738E-01 -2.9761541367E-01 -2.7330996488E-01
-2.4870273864E-01 -2.2405509934E-01 -1.9961792911E-01 -1.7562898737E-01
-1.5231047175E-01 -1.2986682061E-01 -1.0848279489E-01 -8.8321872650E-02
-6.9524961161E-02 -5.2209586742E-02 -3.6469000780E-02 -2.2370789577E-02
-9.9558140458E-03 7.6152447941E-04 9.7925824425E-03 1.7173416827E-02
2.2963364415E-02 2.7243285776E-02 3.0113504525E-02 3.1691476107E-02
3.2109224531E-02 3.1510589728E-02 3.0048331167E-02 2.7881135534E-02
2.5170578406E-02 2.2078090318E-02 1.8761978227E-02 1.5374550708E-02
1.2059394888E-02 8.9488508556E-03 6.1617261053E-03 3.8027193357E-03
1.9458290776E-03 6.8704660273E-04 7.9300201398E-05 -5.6798669441E-05
2.8588179295E-07 1.1966934310E-05 -2.4117977600E-06 -4.3334083578E-07
0. 0. 0. 0.
0. 0. 0. 0.
0. 0. 0. 0.
0. 0. 0. 0.
0. 0. 0. 0.
0. 0. 0. 0.
0. 0. 0. 0.
0. 0. 0. 0.
0. 0. 0. 0.
0. 0. 0. 0.
0. 0. 0. 0.
0. 0. 0. 0.
0. 0. 0. 0.
0. 0. 0. 0.
0. 0. 0. 0.
0. 0. 0. 0.
0. 0. 0. 0.
0. 0. 0. 0.
0. 0. 0. 0.
0. 0. 0. 0.
0. 0. 0. 0.
0. 0. 0. 0.
0. 0. 0. 0.
0. 0. 0. 0.
0. 0. 0. 0.
0. 0. 0. 0.
0. 0. 0. 0.
0. 0. 0. 0.
0. 0. 0. 0.
0. 0. 0. 0.
0. 0. 0. 0.
0. 0. 0. 0.
0. 0. 0. 0.
0. 0. 0. 0.
0. 0. 0. 0.
0. 0. 0. 0.
0. 0. 0. 0.
0. 0. 0. 0.
0. 0. 0. 0.
0. 0. 0. 0.
0. 0. 0. 0.
0. 0. 0. 0.
0. 0. 0. 0.
0. 0. 0. 0.
0. 0. 0. 0.
0. 0. 0. 0.
0. 0. 0. 0.
0. 0. 0. 0.
0. 0. 0. 0.
0. 0. 0. 0.
0. 0. 0. 0.
0. 0. 0. 0.
0. 0. 0. 0.
0. 0. 0. 0.
0. 0. 0. 0.
0. 0. 0. 0.
0. 0. 0. 0.
0. 0. 0. 0.
0. 0. 0. 0.
0. 0. 0. 0.
0. 0. 0. 0.
0. 0. 0. 0.
0. 0. 0. 0.
0. 0. 0. 0.
0. 0. 0. 0.
0. 0. 0. 0.
0. 0. 0. 0.
0. 0. 0. 0.
0. 0. 0. 0.
0. 0. 0. 0.
0. 0. 0. 0.
0. 0. 0. 0.
0. 0. 0. 0.
0. 0. 0. 0.
0. 0. 0. 0.
0. 0. 0. 0.
0. 0. 0. 0.
0. 0. 0. 0.
0. 0. 0. 0.
0. 0. 0. 0.
0. 0. 0. 0.
0. 0. 0. 0.
0. 0. 0. 0.
0. 0. 0. 0.
0. 0. 0. 0.
0. 0. 0. 0.
0. 0. 0. 0.
0. 0. 0. 0.
0. 0. 0. 0.
0. 0. 0. 0.
0. 0. 0. 0.
0. 0. 0. 0.
0. 0. 0. 0.
0. 0. 0. 0.
0. 0. 0. 0.
0. 0. 0. 0.
0. 0. 0. 0.
0. 0. 0. 0.
0. 0. 0. 0.
0. 0. 0. 0.
0. 0. 0. 0.
0. 0. 0. 0.
0. 0. 0. 0.
0. 0. 0. 0.
0. 0. 0. 0.
0. 0. 0. 0.
0. 0. 0. 0.
0. 0. 0. 0.
0. 0. 0. 0.
0. 0. 0. 0.
0. 0. 0. 0.
0. 0. 0. 0.
0. 0. 0. 0.
0. 0. 0. 0.
0. 0. 0. 0.
0. 0. 0. 0.
0. 0. 0. 0.
0. 0. 0. 0.
0. 0. 0. 0.
0. 0. 0. 0.
0. 0. 0. 0.
0. 0. 0. 0.
0. 0. 0. 0.
0. 0. 0. 0.
0. 0. 0. 0.
0. 0. 0. 0.
0. 0. 0. 0.
0. 0. 0. 0.
0. 0. 0. 0.
0. 0. 0. 0.
0. 0. 0. 0.
0. 0. 0. 0.
0. 0. 0. 0.
0. 0. 0. 0.
0. 0. 0. 0.
0. 0. 0. 0.
0. 0. 0. 0.
0. 0. 0. 0.
0. 0. 0. 0.
0. 0. 0. 0.
0. 0. 0. 0.
0. 0. 0. 0.
0. 0. 0. 0.
0. 0. 0. 0.
0. 0. 0. 0.
0. 0. 0. 0.
0. 0. 0. 0.
0. 0. 0. 0.
0. 0. 0. 0.
0. 0. 0. 0.</PP_BETA.1><PP_BETA.2 type="real" size=" 732" columns="4" index="2" angular_momentum="0" cutoff_radius_index=" 132" cutoff_radius="    1.3100000000E+00">
7.0713713773E-09 -5.2053214576E-02 -1.0352508095E-01 -1.5384095608E-01
-2.0243950379E-01 -2.4877909148E-01 -2.9234388383E-01 -3.3264954115E-01
-3.6924843673E-01 -4.0173431668E-01 -4.2974633498E-01 -4.5297240838E-01
-4.7115184699E-01 -4.8407723012E-01 -4.9159550933E-01 -4.9360833498E-01