<UPF version="2.0.1"><PP_INFO>This pseudopotential file has been produced using the code
ONCVPSP (Optimized Norm-Conservinng Vanderbilt PSeudopotential)
scalar-relativistic version 3.3.0 08/16/2017 by D. R. Hamann
The code is available through a link at URL www.mat-simresearch.com.
Documentation with the package provides a full discription of the
input data below.
While it is not required under the terms of the GNU GPL, it is
suggested that you cite D. R. Hamann, Phys. Rev. B 88, 085117 (2013)
in any publication using these pseudopotentials.<PP_INPUTFILE>
# ATOM AND REFERENCE CONFIGURATION
# atsym z nc nv iexc psfile
Hg 80.00 10 4 -116133 upf
#
# n l f energy (Ha)
1 0 2.00
2 0 2.00
2 1 6.00
3 0 2.00
3 1 6.00
3 2 10.00
4 0 2.00
4 1 6.00
4 2 10.00
4 3 14.00
5 0 2.00
5 1 6.00
5 2 10.00
6 0 2.00
#
# PSEUDOPOTENTIAL AND OPTIMIZATION
# lmax
3
#
# l, rc, ep, ncon, nbas, qcut
0 1.60000 -4.34552 4 8 8.00000
1 1.60000 -2.44505 4 8 8.20000
2 1.45000 -0.36307 4 8 8.80000
3 1.60000 0.10000 4 8 6.80000
#
# LOCAL POTENTIAL
# lloc, lpopt, rc(5), dvloc0
4 5 1.45000 0.00000
#
# VANDERBILT-KLEINMAN-BYLANDER PROJECTORs
# l, nproj, debl
0 2 4.09318
1 2 2.80000
2 2 1.80000
3 1 1.50000
#
# MODEL CORE CHARGE
# icmod, fcfact, rcfact
3 5.00000 1.37000
#
# LOG DERIVATIVE ANALYSIS
# epsh1, epsh2, depsh
-12.00 12.00 0.02
#
# OUTPUT GRID
# rlmax, drl
6.00 0.01
#
# TEST CONFIGURATIONS
# ncnf
0
# nvcnf
# n l f</PP_INPUTFILE></PP_INFO><PP_HEADER generated="Generated using ONCVPSP code by D. R. Hamann" author="anonymous" date="180301" comment="" element="Hg" pseudo_type="NC" relativistic="scalar" is_ultrasoft="F" is_paw="F" is_coulomb="F" has_so="F" has_wfc="F" has_gipaw="F" core_correction="T" functional="PBESOL" z_valence="   20.00" total_psenergy="  -3.12273004437E+02" rho_cutoff="   1.24500000000E+01" l_max="3" l_local="-1" mesh_size="  1246" number_of_wfc="4" number_of_proj="7"/><PP_MESH><PP_R type="real" size="1246" columns="8">
0.0000 0.0100 0.0200 0.0300 0.0400 0.0500 0.0600 0.0700
0.0800 0.0900 0.1000 0.1100 0.1200 0.1300 0.1400 0.1500
0.1600 0.1700 0.1800 0.1900 0.2000 0.2100 0.2200 0.2300
0.2400 0.2500 0.2600 0.2700 0.2800 0.2900 0.3000 0.3100
0.3200 0.3300 0.3400 0.3500 0.3600 0.3700 0.3800 0.3900
0.4000 0.4100 0.4200 0.4300 0.4400 0.4500 0.4600 0.4700
0.4800 0.4900 0.5000 0.5100 0.5200 0.5300 0.5400 0.5500
0.5600 0.5700 0.5800 0.5900 0.6000 0.6100 0.6200 0.6300
0.6400 0.6500 0.6600 0.6700 0.6800 0.6900 0.7000 0.7100
0.7200 0.7300 0.7400 0.7500 0.7600 0.7700 0.7800 0.7900
0.8000 0.8100 0.8200 0.8300 0.8400 0.8500 0.8600 0.8700
0.8800 0.8900 0.9000 0.9100 0.9200 0.9300 0.9400 0.9500
0.9600 0.9700 0.9800 0.9900 1.0000 1.0100 1.0200 1.0300
1.0400 1.0500 1.0600 1.0700 1.0800 1.0900 1.1000 1.1100
1.1200 1.1300 1.1400 1.1500 1.1600 1.1700 1.1800 1.1900
1.2000 1.2100 1.2200 1.2300 1.2400 1.2500 1.2600 1.2700
1.2800 1.2900 1.3000 1.3100 1.3200 1.3300 1.3400 1.3500
1.3600 1.3700 1.3800 1.3900 1.4000 1.4100 1.4200 1.4300
1.4400 1.4500 1.4600 1.4700 1.4800 1.4900 1.5000 1.5100
1.5200 1.5300 1.5400 1.5500 1.5600 1.5700 1.5800 1.5900
1.6000 1.6100 1.6200 1.6300 1.6400 1.6500 1.6600 1.6700
1.6800 1.6900 1.7000 1.7100 1.7200 1.7300 1.7400 1.7500
1.7600 1.7700 1.7800 1.7900 1.8000 1.8100 1.8200 1.8300
1.8400 1.8500 1.8600 1.8700 1.8800 1.8900 1.9000 1.9100
1.9200 1.9300 1.9400 1.9500 1.9600 1.9700 1.9800 1.9900
2.0000 2.0100 2.0200 2.0300 2.0400 2.0500 2.0600 2.0700
2.0800 2.0900 2.1000 2.1100 2.1200 2.1300 2.1400 2.1500
2.1600 2.1700 2.1800 2.1900 2.2000 2.2100 2.2200 2.2300
2.2400 2.2500 2.2600 2.2700 2.2800 2.2900 2.3000 2.3100
2.3200 2.3300 2.3400 2.3500 2.3600 2.3700 2.3800 2.3900
2.4000 2.4100 2.4200 2.4300 2.4400 2.4500 2.4600 2.4700
2.4800 2.4900 2.5000 2.5100 2.5200 2.5300 2.5400 2.5500
2.5600 2.5700 2.5800 2.5900 2.6000 2.6100 2.6200 2.6300
2.6400 2.6500 2.6600 2.6700 2.6800 2.6900 2.7000 2.7100
2.7200 2.7300 2.7400 2.7500 2.7600 2.7700 2.7800 2.7900
2.8000 2.8100 2.8200 2.8300 2.8400 2.8500 2.8600 2.8700
2.8800 2.8900 2.9000 2.9100 2.9200 2.9300 2.9400 2.9500
2.9600 2.9700 2.9800 2.9900 3.0000 3.0100 3.0200 3.0300
3.0400 3.0500 3.0600 3.0700 3.0800 3.0900 3.1000 3.1100
3.1200 3.1300 3.1400 3.1500 3.1600 3.1700 3.1800 3.1900
3.2000 3.2100 3.2200 3.2300 3.2400 3.2500 3.2600 3.2700
3.2800 3.2900 3.3000 3.3100 3.3200 3.3300 3.3400 3.3500
3.3600 3.3700 3.3800 3.3900 3.4000 3.4100 3.4200 3.4300
3.4400 3.4500 3.4600 3.4700 3.4800 3.4900 3.5000 3.5100
3.5200 3.5300 3.5400 3.5500 3.5600 3.5700 3.5800 3.5900
3.6000 3.6100 3.6200 3.6300 3.6400 3.6500 3.6600 3.6700
3.6800 3.6900 3.7000 3.7100 3.7200 3.7300 3.7400 3.7500
3.7600 3.7700 3.7800 3.7900 3.8000 3.8100 3.8200 3.8300
3.8400 3.8500 3.8600 3.8700 3.8800 3.8900 3.9000 3.9100
3.9200 3.9300 3.9400 3.9500 3.9600 3.9700 3.9800 3.9900
4.0000 4.0100 4.0200 4.0300 4.0400 4.0500 4.0600 4.0700
4.0800 4.0900 4.1000 4.1100 4.1200 4.1300 4.1400 4.1500
4.1600 4.1700 4.1800 4.1900 4.2000 4.2100 4.2200 4.2300
4.2400 4.2500 4.2600 4.2700 4.2800 4.2900 4.3000 4.3100
4.3200 4.3300 4.3400 4.3500 4.3600 4.3700 4.3800 4.3900
4.4000 4.4100 4.4200 4.4300 4.4400 4.4500 4.4600 4.4700
4.4800 4.4900 4.5000 4.5100 4.5200 4.5300 4.5400 4.5500
4.5600 4.5700 4.5800 4.5900 4.6000 4.6100 4.6200 4.6300
4.6400 4.6500 4.6600 4.6700 4.6800 4.6900 4.7000 4.7100
4.7200 4.7300 4.7400 4.7500 4.7600 4.7700 4.7800 4.7900
4.8000 4.8100 4.8200 4.8300 4.8400 4.8500 4.8600 4.8700
4.8800 4.8900 4.9000 4.9100 4.9200 4.9300 4.9400 4.9500
4.9600 4.9700 4.9800 4.9900 5.0000 5.0100 5.0200 5.0300
5.0400 5.0500 5.0600 5.0700 5.0800 5.0900 5.1000 5.1100
5.1200 5.1300 5.1400 5.1500 5.1600 5.1700 5.1800 5.1900
5.2000 5.2100 5.2200 5.2300 5.2400 5.2500 5.2600 5.2700
5.2800 5.2900 5.3000 5.3100 5.3200 5.3300 5.3400 5.3500
5.3600 5.3700 5.3800 5.3900 5.4000 5.4100 5.4200 5.4300
5.4400 5.4500 5.4600 5.4700 5.4800 5.4900 5.5000 5.5100
5.5200 5.5300 5.5400 5.5500 5.5600 5.5700 5.5800 5.5900
5.6000 5.6100 5.6200 5.6300 5.6400 5.6500 5.6600 5.6700
5.6800 5.6900 5.7000 5.7100 5.7200 5.7300 5.7400 5.7500
5.7600 5.7700 5.7800 5.7900 5.8000 5.8100 5.8200 5.8300
5.8400 5.8500 5.8600 5.8700 5.8800 5.8900 5.9000 5.9100
5.9200 5.9300 5.9400 5.9500 5.9600 5.9700 5.9800 5.9900
6.0000 6.0100 6.0200 6.0300 6.0400 6.0500 6.0600 6.0700
6.0800 6.0900 6.1000 6.1100 6.1200 6.1300 6.1400 6.1500
6.1600 6.1700 6.1800 6.1900 6.2000 6.2100 6.2200 6.2300
6.2400 6.2500 6.2600 6.2700 6.2800 6.2900 6.3000 6.3100
6.3200 6.3300 6.3400 6.3500 6.3600 6.3700 6.3800 6.3900
6.4000 6.4100 6.4200 6.4300 6.4400 6.4500 6.4600 6.4700
6.4800 6.4900 6.5000 6.5100 6.5200 6.5300 6.5400 6.5500
6.5600 6.5700 6.5800 6.5900 6.6000 6.6100 6.6200 6.6300
6.6400 6.6500 6.6600 6.6700 6.6800 6.6900 6.7000 6.7100
6.7200 6.7300 6.7400 6.7500 6.7600 6.7700 6.7800 6.7900
6.8000 6.8100 6.8200 6.8300 6.8400 6.8500 6.8600 6.8700
6.8800 6.8900 6.9000 6.9100 6.9200 6.9300 6.9400 6.9500
6.9600 6.9700 6.9800 6.9900 7.0000 7.0100 7.0200 7.0300
7.0400 7.0500 7.0600 7.0700 7.0800 7.0900 7.1000 7.1100
7.1200 7.1300 7.1400 7.1500 7.1600 7.1700 7.1800 7.1900
7.2000 7.2100 7.2200 7.2300 7.2400 7.2500 7.2600 7.2700
7.2800 7.2900 7.3000 7.3100 7.3200 7.3300 7.3400 7.3500
7.3600 7.3700 7.3800 7.3900 7.4000 7.4100 7.4200 7.4300
7.4400 7.4500 7.4600 7.4700 7.4800 7.4900 7.5000 7.5100
7.5200 7.5300 7.5400 7.5500 7.5600 7.5700 7.5800 7.5900
7.6000 7.6100 7.6200 7.6300 7.6400 7.6500 7.6600 7.6700
7.6800 7.6900 7.7000 7.7100 7.7200 7.7300 7.7400 7.7500
7.7600 7.7700 7.7800 7.7900 7.8000 7.8100 7.8200 7.8300
7.8400 7.8500 7.8600 7.8700 7.8800 7.8900 7.9000 7.9100
7.9200 7.9300 7.9400 7.9500 7.9600 7.9700 7.9800 7.9900
8.0000 8.0100 8.0200 8.0300 8.0400 8.0500 8.0600 8.0700
8.0800 8.0900 8.1000 8.1100 8.1200 8.1300 8.1400 8.1500
8.1600 8.1700 8.1800 8.1900 8.2000 8.2100 8.2200 8.2300
8.2400 8.2500 8.2600 8.2700 8.2800 8.2900 8.3000 8.3100
8.3200 8.3300 8.3400 8.3500 8.3600 8.3700 8.3800 8.3900
8.4000 8.4100 8.4200 8.4300 8.4400 8.4500 8.4600 8.4700
8.4800 8.4900 8.5000 8.5100 8.5200 8.5300 8.5400 8.5500
8.5600 8.5700 8.5800 8.5900 8.6000 8.6100 8.6200 8.6300
8.6400 8.6500 8.6600 8.6700 8.6800 8.6900 8.7000 8.7100
8.7200 8.7300 8.7400 8.7500 8.7600 8.7700 8.7800 8.7900
8.8000 8.8100 8.8200 8.8300 8.8400 8.8500 8.8600 8.8700
8.8800 8.8900 8.9000 8.9100 8.9200 8.9300 8.9400 8.9500
8.9600 8.9700 8.9800 8.9900 9.0000 9.0100 9.0200 9.0300
9.0400 9.0500 9.0600 9.0700 9.0800 9.0900 9.1000 9.1100
9.1200 9.1300 9.1400 9.1500 9.1600 9.1700 9.1800 9.1900
9.2000 9.2100 9.2200 9.2300 9.2400 9.2500 9.2600 9.2700
9.2800 9.2900 9.3000 9.3100 9.3200 9.3300 9.3400 9.3500
9.3600 9.3700 9.3800 9.3900 9.4000 9.4100 9.4200 9.4300
9.4400 9.4500 9.4600 9.4700 9.4800 9.4900 9.5000 9.5100
9.5200 9.5300 9.5400 9.5500 9.5600 9.5700 9.5800 9.5900
9.6000 9.6100 9.6200 9.6300 9.6400 9.6500 9.6600 9.6700
9.6800 9.6900 9.7000 9.7100 9.7200 9.7300 9.7400 9.7500
9.7600 9.7700 9.7800 9.7900 9.8000 9.8100 9.8200 9.8300
9.8400 9.8500 9.8600 9.8700 9.8800 9.8900 9.9000 9.9100
9.9200 9.9300 9.9400 9.9500 9.9600 9.9700 9.9800 9.9900
10.0000 10.0100 10.0200 10.0300 10.0400 10.0500 10.0600 10.0700
10.0800 10.0900 10.1000 10.1100 10.1200 10.1300 10.1400 10.1500
10.1600 10.1700 10.1800 10.1900 10.2000 10.2100 10.2200 10.2300
10.2400 10.2500 10.2600 10.2700 10.2800 10.2900 10.3000 10.3100
10.3200 10.3300 10.3400 10.3500 10.3600 10.3700 10.3800 10.3900
10.4000 10.4100 10.4200 10.4300 10.4400 10.4500 10.4600 10.4700
10.4800 10.4900 10.5000 10.5100 10.5200 10.5300 10.5400 10.5500
10.5600 10.5700 10.5800 10.5900 10.6000 10.6100 10.6200 10.6300
10.6400 10.6500 10.6600 10.6700 10.6800 10.6900 10.7000 10.7100
10.7200 10.7300 10.7400 10.7500 10.7600 10.7700 10.7800 10.7900
10.8000 10.8100 10.8200 10.8300 10.8400 10.8500 10.8600 10.8700
10.8800 10.8900 10.9000 10.9100 10.9200 10.9300 10.9400 10.9500
10.9600 10.9700 10.9800 10.9900 11.0000 11.0100 11.0200 11.0300
11.0400 11.0500 11.0600 11.0700 11.0800 11.0900 11.1000 11.1100
11.1200 11.1300 11.1400 11.1500 11.1600 11.1700 11.1800 11.1900
11.2000 11.2100 11.2200 11.2300 11.2400 11.2500 11.2600 11.2700
11.2800 11.2900 11.3000 11.3100 11.3200 11.3300 11.3400 11.3500
11.3600 11.3700 11.3800 11.3900 11.4000 11.4100 11.4200 11.4300
11.4400 11.4500 11.4600 11.4700 11.4800 11.4900 11.5000 11.5100
11.5200 11.5300 11.5400 11.5500 11.5600 11.5700 11.5800 11.5900
11.6000 11.6100 11.6200 11.6300 11.6400 11.6500 11.6600 11.6700
11.6800 11.6900 11.7000 11.7100 11.7200 11.7300 11.7400 11.7500
11.7600 11.7700 11.7800 11.7900 11.8000 11.8100 11.8200 11.8300
11.8400 11.8500 11.8600 11.8700 11.8800 11.8900 11.9000 11.9100
11.9200 11.9300 11.9400 11.9500 11.9600 11.9700 11.9800 11.9900
12.0000 12.0100 12.0200 12.0300 12.0400 12.0500 12.0600 12.0700
12.0800 12.0900 12.1000 12.1100 12.1200 12.1300 12.1400 12.1500
12.1600 12.1700 12.1800 12.1900 12.2000 12.2100 12.2200 12.2300
12.2400 12.2500 12.2600 12.2700 12.2800 12.2900 12.3000 12.3100
12.3200 12.3300 12.3400 12.3500 12.3600 12.3700 12.3800 12.3900
12.4000 12.4100 12.4200 12.4300 12.4400 12.4500</PP_R><PP_RAB type="real" size="1246" columns="8">
0.0100 0.0100 0.0100 0.0100 0.0100 0.0100 0.0100 0.0100
0.0100 0.0100 0.0100 0.0100 0.0100 0.0100 0.0100 0.0100
0.0100 0.0100 0.0100 0.0100 0.0100 0.0100 0.0100 0.0100
0.0100 0.0100 0.0100 0.0100 0.0100 0.0100 0.0100 0.0100
0.0100 0.0100 0.0100 0.0100 0.0100 0.0100 0.0100 0.0100
0.0100 0.0100 0.0100 0.0100 0.0100 0.0100 0.0100 0.0100
0.0100 0.0100 0.0100 0.0100 0.0100 0.0100 0.0100 0.0100
0.0100 0.0100 0.0100 0.0100 0.0100 0.0100 0.0100 0.0100
0.0100 0.0100 0.0100 0.0100 0.0100 0.0100 0.0100 0.0100
0.0100 0.0100 0.0100 0.0100 0.0100 0.0100 0.0100 0.0100
0.0100 0.0100 0.0100 0.0100 0.0100 0.0100 0.0100 0.0100
0.0100 0.0100 0.0100 0.0100 0.0100 0.0100 0.0100 0.0100
0.0100 0.0100 0.0100 0.0100 0.0100 0.0100 0.0100 0.0100
0.0100 0.0100 0.0100 0.0100 0.0100 0.0100 0.0100 0.0100
0.0100 0.0100 0.0100 0.0100 0.0100 0.0100 0.0100 0.0100
0.0100 0.0100 0.0100 0.0100 0.0100 0.0100 0.0100 0.0100
0.0100 0.0100 0.0100 0.0100 0.0100 0.0100 0.0100 0.0100
0.0100 0.0100 0.0100 0.0100 0.0100 0.0100 0.0100 0.0100
0.0100 0.0100 0.0100 0.0100 0.0100 0.0100 0.0100 0.0100
0.0100 0.0100 0.0100 0.0100 0.0100 0.0100 0.0100 0.0100
0.0100 0.0100 0.0100 0.0100 0.0100 0.0100 0.0100 0.0100
0.0100 0.0100 0.0100 0.0100 0.0100 0.0100 0.0100 0.0100
0.0100 0.0100 0.0100 0.0100 0.0100 0.0100 0.0100 0.0100
0.0100 0.0100 0.0100 0.0100 0.0100 0.0100 0.0100 0.0100
0.0100 0.0100 0.0100 0.0100 0.0100 0.0100 0.0100 0.0100
0.0100 0.0100 0.0100 0.0100 0.0100 0.0100 0.0100 0.0100
0.0100 0.0100 0.0100 0.0100 0.0100 0.0100 0.0100 0.0100
0.0100 0.0100 0.0100 0.0100 0.0100 0.0100 0.0100 0.0100
0.0100 0.0100 0.0100 0.0100 0.0100 0.0100 0.0100 0.0100
0.0100 0.0100 0.0100 0.0100 0.0100 0.0100 0.0100 0.0100
0.0100 0.0100 0.0100 0.0100 0.0100 0.0100 0.0100 0.0100
0.0100 0.0100 0.0100 0.0100 0.0100 0.0100 0.0100 0.0100
0.0100 0.0100 0.0100 0.0100 0.0100 0.0100 0.0100 0.0100
0.0100 0.0100 0.0100 0.0100 0.0100 0.0100 0.0100 0.0100
0.0100 0.0100 0.0100 0.0100 0.0100 0.0100 0.0100 0.0100
0.0100 0.0100 0.0100 0.0100 0.0100 0.0100 0.0100 0.0100
0.0100 0.0100 0.0100 0.0100 0.0100 0.0100 0.0100 0.0100
0.0100 0.0100 0.0100 0.0100 0.0100 0.0100 0.0100 0.0100
0.0100 0.0100 0.0100 0.0100 0.0100 0.0100 0.0100 0.0100
0.0100 0.0100 0.0100 0.0100 0.0100 0.0100 0.0100 0.0100
0.0100 0.0100 0.0100 0.0100 0.0100 0.0100 0.0100 0.0100
0.0100 0.0100 0.0100 0.0100 0.0100 0.0100 0.0100 0.0100
0.0100 0.0100 0.0100 0.0100 0.0100 0.0100 0.0100 0.0100
0.0100 0.0100 0.0100 0.0100 0.0100 0.0100 0.0100 0.0100
0.0100 0.0100 0.0100 0.0100 0.0100 0.0100 0.0100 0.0100
0.0100 0.0100 0.0100 0.0100 0.0100 0.0100 0.0100 0.0100
0.0100 0.0100 0.0100 0.0100 0.0100 0.0100 0.0100 0.0100
0.0100 0.0100 0.0100 0.0100 0.0100 0.0100 0.0100 0.0100
0.0100 0.0100 0.0100 0.0100 0.0100 0.0100 0.0100 0.0100
0.0100 0.0100 0.0100 0.0100 0.0100 0.0100 0.0100 0.0100
0.0100 0.0100 0.0100 0.0100 0.0100 0.0100 0.0100 0.0100
0.0100 0.0100 0.0100 0.0100 0.0100 0.0100 0.0100 0.0100
0.0100 0.0100 0.0100 0.0100 0.0100 0.0100 0.0100 0.0100
0.0100 0.0100 0.0100 0.0100 0.0100 0.0100 0.0100 0.0100
0.0100 0.0100 0.0100 0.0100 0.0100 0.0100 0.0100 0.0100
0.0100 0.0100 0.0100 0.0100 0.0100 0.0100 0.0100 0.0100
0.0100 0.0100 0.0100 0.0100 0.0100 0.0100 0.0100 0.0100
0.0100 0.0100 0.0100 0.0100 0.0100 0.0100 0.0100 0.0100
0.0100 0.0100 0.0100 0.0100 0.0100 0.0100 0.0100 0.0100
0.0100 0.0100 0.0100 0.0100 0.0100 0.0100 0.0100 0.0100
0.0100 0.0100 0.0100 0.0100 0.0100 0.0100 0.0100 0.0100
0.0100 0.0100 0.0100 0.0100 0.0100 0.0100 0.0100 0.0100
0.0100 0.0100 0.0100 0.0100 0.0100 0.0100 0.0100 0.0100
0.0100 0.0100 0.0100 0.0100 0.0100 0.0100 0.0100 0.0100
0.0100 0.0100 0.0100 0.0100 0.0100 0.0100 0.0100 0.0100
0.0100 0.0100 0.0100 0.0100 0.0100 0.0100 0.0100 0.0100
0.0100 0.0100 0.0100 0.0100 0.0100 0.0100 0.0100 0.0100
0.0100 0.0100 0.0100 0.0100 0.0100 0.0100 0.0100 0.0100
0.0100 0.0100 0.0100 0.0100 0.0100 0.0100 0.0100 0.0100
0.0100 0.0100 0.0100 0.0100 0.0100 0.0100 0.0100 0.0100
0.0100 0.0100 0.0100 0.0100 0.0100 0.0100 0.0100 0.0100
0.0100 0.0100 0.0100 0.0100 0.0100 0.0100 0.0100 0.0100
0.0100 0.0100 0.0100 0.0100 0.0100 0.0100 0.0100 0.0100
0.0100 0.0100 0.0100 0.0100 0.0100 0.0100 0.0100 0.0100
0.0100 0.0100 0.0100 0.0100 0.0100 0.0100 0.0100 0.0100
0.0100 0.0100 0.0100 0.0100 0.0100 0.0100 0.0100 0.0100
0.0100 0.0100 0.0100 0.0100 0.0100 0.0100 0.0100 0.0100
0.0100 0.0100 0.0100 0.0100 0.0100 0.0100 0.0100 0.0100
0.0100 0.0100 0.0100 0.0100 0.0100 0.0100 0.0100 0.0100
0.0100 0.0100 0.0100 0.0100 0.0100 0.0100 0.0100 0.0100
0.0100 0.0100 0.0100 0.0100 0.0100 0.0100 0.0100 0.0100
0.0100 0.0100 0.0100 0.0100 0.0100 0.0100 0.0100 0.0100
0.0100 0.0100 0.0100 0.0100 0.0100 0.0100 0.0100 0.0100
0.0100 0.0100 0.0100 0.0100 0.0100 0.0100 0.0100 0.0100
0.0100 0.0100 0.0100 0.0100 0.0100 0.0100 0.0100 0.0100
0.0100 0.0100 0.0100 0.0100 0.0100 0.0100 0.0100 0.0100
0.0100 0.0100 0.0100 0.0100 0.0100 0.0100 0.0100 0.0100
0.0100 0.0100 0.0100 0.0100 0.0100 0.0100 0.0100 0.0100
0.0100 0.0100 0.0100 0.0100 0.0100 0.0100 0.0100 0.0100
0.0100 0.0100 0.0100 0.0100 0.0100 0.0100 0.0100 0.0100
0.0100 0.0100 0.0100 0.0100 0.0100 0.0100 0.0100 0.0100
0.0100 0.0100 0.0100 0.0100 0.0100 0.0100 0.0100 0.0100
0.0100 0.0100 0.0100 0.0100 0.0100 0.0100 0.0100 0.0100
0.0100 0.0100 0.0100 0.0100 0.0100 0.0100 0.0100 0.0100
0.0100 0.0100 0.0100 0.0100 0.0100 0.0100 0.0100 0.0100
0.0100 0.0100 0.0100 0.0100 0.0100 0.0100 0.0100 0.0100
0.0100 0.0100 0.0100 0.0100 0.0100 0.0100 0.0100 0.0100
0.0100 0.0100 0.0100 0.0100 0.0100 0.0100 0.0100 0.0100
0.0100 0.0100 0.0100 0.0100 0.0100 0.0100 0.0100 0.0100
0.0100 0.0100 0.0100 0.0100 0.0100 0.0100 0.0100 0.0100
0.0100 0.0100 0.0100 0.0100 0.0100 0.0100 0.0100 0.0100
0.0100 0.0100 0.0100 0.0100 0.0100 0.0100 0.0100 0.0100
0.0100 0.0100 0.0100 0.0100 0.0100 0.0100 0.0100 0.0100
0.0100 0.0100 0.0100 0.0100 0.0100 0.0100 0.0100 0.0100
0.0100 0.0100 0.0100 0.0100 0.0100 0.0100 0.0100 0.0100
0.0100 0.0100 0.0100 0.0100 0.0100 0.0100 0.0100 0.0100
0.0100 0.0100 0.0100 0.0100 0.0100 0.0100 0.0100 0.0100
0.0100 0.0100 0.0100 0.0100 0.0100 0.0100 0.0100 0.0100
0.0100 0.0100 0.0100 0.0100 0.0100 0.0100 0.0100 0.0100
0.0100 0.0100 0.0100 0.0100 0.0100 0.0100 0.0100 0.0100
0.0100 0.0100 0.0100 0.0100 0.0100 0.0100 0.0100 0.0100
0.0100 0.0100 0.0100 0.0100 0.0100 0.0100 0.0100 0.0100
0.0100 0.0100 0.0100 0.0100 0.0100 0.0100 0.0100 0.0100
0.0100 0.0100 0.0100 0.0100 0.0100 0.0100 0.0100 0.0100
0.0100 0.0100 0.0100 0.0100 0.0100 0.0100 0.0100 0.0100
0.0100 0.0100 0.0100 0.0100 0.0100 0.0100 0.0100 0.0100
0.0100 0.0100 0.0100 0.0100 0.0100 0.0100 0.0100 0.0100
0.0100 0.0100 0.0100 0.0100 0.0100 0.0100 0.0100 0.0100
0.0100 0.0100 0.0100 0.0100 0.0100 0.0100 0.0100 0.0100
0.0100 0.0100 0.0100 0.0100 0.0100 0.0100 0.0100 0.0100
0.0100 0.0100 0.0100 0.0100 0.0100 0.0100 0.0100 0.0100
0.0100 0.0100 0.0100 0.0100 0.0100 0.0100 0.0100 0.0100
0.0100 0.0100 0.0100 0.0100 0.0100 0.0100 0.0100 0.0100
0.0100 0.0100 0.0100 0.0100 0.0100 0.0100 0.0100 0.0100
0.0100 0.0100 0.0100 0.0100 0.0100 0.0100 0.0100 0.0100
0.0100 0.0100 0.0100 0.0100 0.0100 0.0100 0.0100 0.0100
0.0100 0.0100 0.0100 0.0100 0.0100 0.0100 0.0100 0.0100
0.0100 0.0100 0.0100 0.0100 0.0100 0.0100 0.0100 0.0100
0.0100 0.0100 0.0100 0.0100 0.0100 0.0100 0.0100 0.0100
0.0100 0.0100 0.0100 0.0100 0.0100 0.0100 0.0100 0.0100
0.0100 0.0100 0.0100 0.0100 0.0100 0.0100 0.0100 0.0100
0.0100 0.0100 0.0100 0.0100 0.0100 0.0100 0.0100 0.0100
0.0100 0.0100 0.0100 0.0100 0.0100 0.0100 0.0100 0.0100
0.0100 0.0100 0.0100 0.0100 0.0100 0.0100 0.0100 0.0100
0.0100 0.0100 0.0100 0.0100 0.0100 0.0100 0.0100 0.0100
0.0100 0.0100 0.0100 0.0100 0.0100 0.0100 0.0100 0.0100
0.0100 0.0100 0.0100 0.0100 0.0100 0.0100 0.0100 0.0100
0.0100 0.0100 0.0100 0.0100 0.0100 0.0100 0.0100 0.0100
0.0100 0.0100 0.0100 0.0100 0.0100 0.0100 0.0100 0.0100
0.0100 0.0100 0.0100 0.0100 0.0100 0.0100 0.0100 0.0100
0.0100 0.0100 0.0100 0.0100 0.0100 0.0100 0.0100 0.0100
0.0100 0.0100 0.0100 0.0100 0.0100 0.0100 0.0100 0.0100
0.0100 0.0100 0.0100 0.0100 0.0100 0.0100 0.0100 0.0100
0.0100 0.0100 0.0100 0.0100 0.0100 0.0100 0.0100 0.0100
0.0100 0.0100 0.0100 0.0100 0.0100 0.0100 0.0100 0.0100
0.0100 0.0100 0.0100 0.0100 0.0100 0.0100 0.0100 0.0100
0.0100 0.0100 0.0100 0.0100 0.0100 0.0100 0.0100 0.0100
0.0100 0.0100 0.0100 0.0100 0.0100 0.0100 0.0100 0.0100
0.0100 0.0100 0.0100 0.0100 0.0100 0.0100 0.0100 0.0100
0.0100 0.0100 0.0100 0.0100 0.0100 0.0100 0.0100 0.0100
0.0100 0.0100 0.0100 0.0100 0.0100 0.0100 0.0100 0.0100
0.0100 0.0100 0.0100 0.0100 0.0100 0.0100 0.0100 0.0100
0.0100 0.0100 0.0100 0.0100 0.0100 0.0100 0.0100 0.0100
0.0100 0.0100 0.0100 0.0100 0.0100 0.0100 0.0100 0.0100
0.0100 0.0100 0.0100 0.0100 0.0100 0.0100 0.0100 0.0100
0.0100 0.0100 0.0100 0.0100 0.0100 0.0100</PP_RAB></PP_MESH><PP_LOCAL type="real" size="1246" columns="4">
-5.7374699435E+01 -5.7372698532E+01 -5.7366695545E+01 -5.7356689717E+01
-5.7342679784E+01 -5.7324663983E+01 -5.7302640067E+01 -5.7276605316E+01
-5.7246556550E+01 -5.7212490153E+01 -5.7174402092E+01 -5.7132287942E+01
-5.7086142918E+01 -5.7035961901E+01 -5.6981739478E+01 -5.6923469977E+01
-5.6861147511E+01 -5.6794766022E+01 -5.6724319332E+01 -5.6649801191E+01
-5.6571205338E+01 -5.6488525556E+01 -5.6401755739E+01 -5.6310889955E+01
-5.6215922520E+01 -5.6116848067E+01 -5.6013661625E+01 -5.5906358699E+01
-5.5794935350E+01 -5.5679388286E+01 -5.5559714944E+01 -5.5435913586E+01
-5.5307983389E+01 -5.5175924540E+01 -5.5039738337E+01 -5.4899427280E+01
-5.4754995178E+01 -5.4606447243E+01 -5.4453790196E+01 -5.4297032363E+01
-5.4136183779E+01 -5.3971256288E+01 -5.3802263640E+01 -5.3629221589E+01
-5.3452147990E+01 -5.3271062891E+01 -5.3085988625E+01 -5.2896949896E+01
-5.2703973864E+01 -5.2507090223E+01 -5.2306331279E+01 -5.2101732020E+01
-5.1893330179E+01 -5.1681166298E+01 -5.1465283774E+01 -5.1245728916E+01
-5.1022550977E+01 -5.0795802191E+01 -5.0565537797E+01 -5.0331816060E+01
-5.0094698277E+01 -4.9854248783E+01 -4.9610534943E+01 -4.9363627133E+01
-4.9113598726E+01 -4.8860526050E+01 -4.8604488354E+01 -4.8345567753E+01
-4.8083849175E+01 -4.7819420289E+01 -4.7552371435E+01 -4.7282795536E+01
-4.7010788006E+01 -4.6736446655E+01 -4.6459871578E+01 -4.6181165041E+01
-4.5900431362E+01 -4.5617776785E+01 -4.5333309343E+01 -4.5047138722E+01
-4.4759376120E+01 -4.4470134097E+01 -4.4179526427E+01 -4.3887667945E+01
-4.3594674388E+01 -4.3300662241E+01 -4.3005748581E+01 -4.2710050912E+01
-4.2413687014E+01 -4.2116774781E+01 -4.1819432069E+01 -4.1521776536E+01
-4.1223925499E+01 -4.0925995777E+01 -4.0628103548E+01 -4.0330364209E+01
-4.0032892234E+01 -3.9735801038E+01 -3.9439202849E+01 -3.9143208579E+01
-3.8847927701E+01 -3.8553468127E+01 -3.8259936094E+01 -3.7967436055E+01
-3.7676070564E+01 -3.7385940173E+01 -3.7097143333E+01 -3.6809776288E+01
-3.6523932983E+01 -3.6239704966E+01 -3.5957181296E+01 -3.5676448451E+01
-3.5397590240E+01 -3.5120687713E+01 -3.4845819073E+01 -3.4573059595E+01
-3.4302481534E+01 -3.4034154045E+01 -3.3768143098E+01 -3.3504511398E+01
-3.3243318299E+01 -3.2984619728E+01 -3.2728468102E+01 -3.2474912249E+01
-3.2223997337E+01 -3.1975764791E+01 -3.1730252221E+01 -3.1487493353E+01
-3.1247517955E+01 -3.1010351770E+01 -3.0776016451E+01 -3.0544529493E+01
-3.0315904177E+01 -3.0090149505E+01 -2.9867270147E+01 -2.9647266384E+01
-2.9430134058E+01 -2.9215864511E+01 -2.9004444548E+01 -2.8795856399E+01
-2.8590077670E+01 -2.8387081276E+01 -2.8186834939E+01 -2.7989301631E+01
-2.7794440177E+01 -2.7602207709E+01 -2.7412561606E+01 -2.7225460557E+01
-2.7040863997E+01 -2.6858728443E+01 -2.6679008020E+01 -2.6501655179E+01
-2.6326623325E+01 -2.6153869250E+01 -2.5983351209E+01 -2.5815028299E+01
-2.5648860094E+01 -2.5484806864E+01 -2.5322830081E+01 -2.5162893614E+01
-2.5004966060E+01 -2.4849019115E+01 -2.4695026339E+01 -2.4542960669E+01
-2.4392790225E+01 -2.4244481230E+01 -2.4097999831E+01 -2.3953312358E+01
-2.3810386847E+01 -2.3669192034E+01 -2.3529696563E+01 -2.3391869577E+01
-2.3255680807E+01 -2.3121100451E+01 -2.2988099168E+01 -2.2856648113E+01
-2.2726718950E+01 -2.2598283856E+01 -2.2471315527E+01 -2.2345787193E+01
-2.2221672619E+01 -2.2098946121E+01 -2.1977582566E+01 -2.1857557380E+01
-2.1738846558E+01 -2.1621426658E+01 -2.1505274811E+01 -2.1390368722E+01
-2.1276686663E+01 -2.1164207479E+01 -2.1052910580E+01 -2.0942775937E+01
-2.0833784075E+01 -2.0725916067E+01 -2.0619153525E+01 -2.0513478584E+01
-2.0408873897E+01 -2.0305322617E+01 -2.0202808385E+01 -2.0101315313E+01
-2.0000827968E+01 -1.9901331356E+01 -1.9802810903E+01 -1.9705252438E+01
-1.9608642171E+01 -1.9512966679E+01 -1.9418212883E+01 -1.9324368032E+01
-1.9231419680E+01 -1.9139355674E+01 -1.9048164128E+01 -1.8957833413E+01
-1.8868352134E+01 -1.8779709117E+01 -1.8691893394E+01 -1.8604894187E+01
-1.8518700895E+01 -1.8433303080E+01 -1.8348690459E+01 -1.8264852892E+01
-1.8181780370E+01 -1.8099463011E+01 -1.8017891050E+01 -1.7937054836E+01
-1.7856944822E+01 -1.7777551568E+01 -1.7698865731E+01 -1.7620878067E+01
-1.7543579430E+01 -1.7466960769E+01 -1.7391013132E+01 -1.7315727663E+01
-1.7241095607E+01 -1.7167108309E+01 -1.7093757220E+01 -1.7021033897E+01
-1.6948930007E+01 -1.6877437330E+01 -1.6806547761E+01 -1.6736253319E+01
-1.6666546142E+01 -1.6597418495E+01 -1.6528862775E+01 -1.6460871506E+01
-1.6393437350E+01 -1.6326553103E+01 -1.6260211700E+01 -1.6194406215E+01
-1.6129129860E+01 -1.6064375988E+01 -1.6000138092E+01 -1.5936409804E+01
-1.5873184894E+01 -1.5810457265E+01 -1.5748220959E+01 -1.5686470145E+01
-1.5625199122E+01 -1.5564402315E+01 -1.5504074267E+01 -1.5444209641E+01
-1.5384803210E+01 -1.5325849857E+01 -1.5267344566E+01 -1.5209282420E+01
-1.5151658595E+01 -1.5094468355E+01 -1.5037707045E+01 -1.4981370090E+01
-1.4925452987E+01 -1.4869951299E+01 -1.4814860654E+01 -1.4760176739E+01
-1.4705895294E+01 -1.4652012110E+01 -1.4598523028E+01 -1.4545423928E+01
-1.4492710734E+01 -1.4440379409E+01 -1.4388425951E+01 -1.4336846393E+01
-1.4285636802E+01 -1.4234793276E+01 -1.4184311947E+01 -1.4134188975E+01
-1.4084420554E+01 -1.4035002909E+01 -1.3985932298E+01 -1.3937205012E+01
-1.3888817376E+01 -1.3840765749E+01 -1.3793046530E+01 -1.3745656155E+01
-1.3698591100E+01 -1.3651847883E+01 -1.3605423068E+01 -1.3559313262E+01
-1.3513515112E+01 -1.3468025313E+01 -1.3422840621E+01 -1.3377957839E+01
-1.3333373799E+01 -1.3289085412E+01 -1.3245089542E+01 -1.3201383386E+01
-1.3157964160E+01 -1.3114829066E+01 -1.3071975369E+01 -1.3029399660E+01
-1.2987098754E+01 -1.2945069494E+01 -1.2903308946E+01 -1.2861814472E+01
-1.2820583657E+01 -1.2779614021E+01 -1.2738904169E+01 -1.2698452783E+01
-1.2658258475E+01 -1.2618320178E+01 -1.2578635165E+01 -1.2539200977E+01
-1.2500014919E+01 -1.2461074164E+01 -1.2422376025E+01 -1.2383917772E+01
-1.2345696649E+01 -1.2307710196E+01 -1.2269956425E+01 -1.2232433312E+01
-1.2195139033E+01 -1.2158071594E+01 -1.2121228848E+01 -1.2084608754E+01
-1.2048209248E+01 -1.2012028339E+01 -1.1976064085E+01 -1.1940314545E+01
-1.1904777798E+01 -1.1869451949E+01 -1.1834335128E+01 -1.1799425484E+01
-1.1764721191E+01 -1.1730220442E+01 -1.1695921453E+01 -1.1661822457E+01
-1.1627921710E+01 -1.1594217490E+01 -1.1560708091E+01 -1.1527391830E+01
-1.1494267042E+01 -1.1461332080E+01 -1.1428585318E+01 -1.1396025148E+01
-1.1363649978E+01 -1.1331458237E+01 -1.1299448371E+01 -1.1267618841E+01
-1.1235968130E+01 -1.1204494733E+01 -1.1173197166E+01 -1.1142073958E+01
-1.1111123658E+01 -1.1080344827E+01 -1.1049736046E+01 -1.1019295908E+01
-1.0989023023E+01 -1.0958916018E+01 -1.0928973532E+01 -1.0899194221E+01
-1.0869576755E+01 -1.0840119816E+01 -1.0810822105E+01 -1.0781682334E+01
-1.0752699228E+01 -1.0723871528E+01 -1.0695197987E+01 -1.0666677372E+01
-1.0638308462E+01 -1.0610090052E+01 -1.0582020945E+01 -1.0554099961E+01
-1.0526325930E+01 -1.0498697695E+01 -1.0471214110E+01 -1.0443874043E+01
-1.0416676373E+01 -1.0389619991E+01 -1.0362703797E+01 -1.0335926705E+01
-1.0309287640E+01 -1.0282785537E+01 -1.0256419343E+01 -1.0230188015E+01
-1.0204090520E+01 -1.0178125838E+01 -1.0152292957E+01 -1.0126590875E+01
-1.0101018603E+01 -1.0075575158E+01 -1.0050259571E+01 -1.0025070879E+01
-1.0000008132E+01 -9.9750703856E+00 -9.9502567084E+00 -9.9255661766E+00
-9.9009978757E+00 -9.8765509002E+00 -9.8522243536E+00 -9.8280173484E+00
-9.8039290055E+00 -9.7799584544E+00 -9.7561048335E+00 -9.7323672890E+00
-9.7087449759E+00 -9.6852370570E+00 -9.6618427035E+00 -9.6385610944E+00
-9.6153914166E+00 -9.5923328649E+00 -9.5693846417E+00 -9.5465459571E+00
-9.5238160287E+00 -9.5011940814E+00 -9.4786793476E+00 -9.4562710670E+00
-9.4339684864E+00 -9.4117708596E+00 -9.3896774475E+00 -9.3676875180E+00
-9.3458003457E+00 -9.3240152119E+00 -9.3023314049E+00 -9.2807482193E+00
-9.2592649564E+00 -9.2378809238E+00 -9.2165954356E+00 -9.1954078123E+00
-9.1743173803E+00 -9.1533234726E+00 -9.1324254280E+00 -9.1116225914E+00
-9.0909143136E+00 -9.0702999513E+00 -9.0497788673E+00 -9.0293504296E+00
-9.0090140125E+00 -8.9887689954E+00 -8.9686147636E+00 -8.9485507079E+00
-8.9285762243E+00 -8.9086907143E+00 -8.8888935849E+00 -8.8691842480E+00
-8.8495621211E+00 -8.8300266265E+00 -8.8105771918E+00 -8.7912132496E+00
-8.7719342373E+00 -8.7527395976E+00 -8.7336287777E+00 -8.7146012297E+00
-8.6956564106E+00 -8.6767937821E+00 -8.6580128104E+00 -8.6393129664E+00
-8.6206937255E+00 -8.6021545678E+00 -8.5836949778E+00 -8.5653144441E+00
-8.5470124602E+00 -8.5287885235E+00 -8.5106421358E+00 -8.4925728032E+00
-8.4745800360E+00 -8.4566633485E+00 -8.4388222591E+00 -8.4210562906E+00
-8.4033649692E+00 -8.3857478257E+00 -8.3682043945E+00 -8.3507342138E+00
-8.3333368258E+00 -8.3160117766E+00 -8.2987586159E+00 -8.2815768972E+00
-8.2644661776E+00 -8.2474260180E+00 -8.2304559828E+00 -8.2135556400E+00
-8.1967245613E+00 -8.1799623216E+00 -8.1632684995E+00 -8.1466426770E+00
-8.1300844393E+00 -8.1135933754E+00 -8.0971690771E+00 -8.0808111399E+00
-8.0645191624E+00 -8.0482927464E+00 -8.0321314970E+00 -8.0160350224E+00
-8.0000029339E+00 -7.9840348460E+00 -7.9681303763E+00 -7.9522891452E+00
-7.9365107763E+00 -7.9207948963E+00 -7.9051411346E+00 -7.8895491236E+00
-7.8740184987E+00 -7.8585488980E+00 -7.8431399627E+00 -7.8277913365E+00
-7.8125026661E+00 -7.7972736008E+00 -7.7821037927E+00 -7.7669928967E+00
-7.7519405702E+00 -7.7369464734E+00 -7.7220102691E+00 -7.7071316225E+00
-7.6923102016E+00 -7.6775456770E+00 -7.6628377215E+00 -7.6481860108E+00
-7.6335902228E+00 -7.6190500379E+00 -7.6045651390E+00 -7.5901352114E+00
-7.5757599428E+00 -7.5614390231E+00 -7.5471721447E+00 -7.5329590024E+00
-7.5187992930E+00 -7.5046927159E+00 -7.4906389725E+00 -7.4766377665E+00
-7.4626888040E+00 -7.4487917930E+00 -7.4349464439E+00 -7.4211524691E+00
-7.4074095831E+00 -7.3937175028E+00 -7.3800759468E+00 -7.3664846360E+00
-7.3529432934E+00 -7.3394516438E+00 -7.3260094143E+00 -7.3126163338E+00
-7.2992721332E+00 -7.2859765454E+00 -7.2727293053E+00 -7.2595301496E+00
-7.2463788170E+00 -7.2332750481E+00 -7.2202185852E+00 -7.2072091727E+00
-7.1942465568E+00 -7.1813304852E+00 -7.1684607079E+00 -7.1556369764E+00
-7.1428590439E+00 -7.1301266656E+00 -7.1174395983E+00 -7.1047976006E+00
-7.0922004327E+00 -7.0796478566E+00 -7.0671396359E+00 -7.0546755360E+00