<UPF version="2.0.1"><PP_INFO>This pseudopotential file has been produced using the code
ONCVPSP (Optimized Norm-Conservinng Vanderbilt PSeudopotential)
scalar-relativistic version 3.3.0 08/16/2017 by D. R. Hamann
The code is available through a link at URL www.mat-simresearch.com.
Documentation with the package provides a full discription of the
input data below.
While it is not required under the terms of the GNU GPL, it is
suggested that you cite D. R. Hamann, Phys. Rev. B 88, 085117 (2013)
in any publication using these pseudopotentials.<PP_INPUTFILE>
# ATOM AND REFERENCE CONFIGURATION
# atsym z nc nv iexc psfile
I 53.00 9 2 -116133 upf
#
# n l f energy (Ha)
1 0 2.00
2 0 2.00
2 1 6.00
3 0 2.00
3 1 6.00
3 2 10.00
4 0 2.00
4 1 6.00
4 2 10.00
5 0 2.00
5 1 5.00
#
# PSEUDOPOTENTIAL AND OPTIMIZATION
# lmax
2
#
# l, rc, ep, ncon, nbas, qcut
0 2.00000 -0.64122 4 7 3.70000
1 2.15000 -0.26084 4 7 4.00000
2 2.25000 0.10000 4 8 4.60000
#
# LOCAL POTENTIAL
# lloc, lpopt, rc(5), dvloc0
4 5 2.00000 0.00000
#
# VANDERBILT-KLEINMAN-BYLANDER PROJECTORs
# l, nproj, debl
0 2 2.20000
1 2 2.50000
2 2 3.00000
#
# MODEL CORE CHARGE
# icmod, fcfact, rcfact
3 4.00000 1.34000
#
# LOG DERIVATIVE ANALYSIS
# epsh1, epsh2, depsh
-12.00 12.00 0.02
#
# OUTPUT GRID
# rlmax, drl
6.00 0.01
#
# TEST CONFIGURATIONS
# ncnf
0
# nvcnf
# n l f</PP_INPUTFILE></PP_INFO><PP_HEADER generated="Generated using ONCVPSP code by D. R. Hamann" author="anonymous" date="180301" comment="" element="I " pseudo_type="NC" relativistic="scalar" is_ultrasoft="F" is_paw="F" is_coulomb="F" has_so="F" has_wfc="F" has_gipaw="F" core_correction="T" functional="PBESOL" z_valence="    7.00" total_psenergy="  -2.31820534068E+01" rho_cutoff="   1.18100000000E+01" l_max="2" l_local="-1" mesh_size="  1182" number_of_wfc="2" number_of_proj="6"/><PP_MESH><PP_R type="real" size="1182" columns="8">
0.0000 0.0100 0.0200 0.0300 0.0400 0.0500 0.0600 0.0700
0.0800 0.0900 0.1000 0.1100 0.1200 0.1300 0.1400 0.1500
0.1600 0.1700 0.1800 0.1900 0.2000 0.2100 0.2200 0.2300
0.2400 0.2500 0.2600 0.2700 0.2800 0.2900 0.3000 0.3100
0.3200 0.3300 0.3400 0.3500 0.3600 0.3700 0.3800 0.3900
0.4000 0.4100 0.4200 0.4300 0.4400 0.4500 0.4600 0.4700
0.4800 0.4900 0.5000 0.5100 0.5200 0.5300 0.5400 0.5500
0.5600 0.5700 0.5800 0.5900 0.6000 0.6100 0.6200 0.6300
0.6400 0.6500 0.6600 0.6700 0.6800 0.6900 0.7000 0.7100
0.7200 0.7300 0.7400 0.7500 0.7600 0.7700 0.7800 0.7900
0.8000 0.8100 0.8200 0.8300 0.8400 0.8500 0.8600 0.8700
0.8800 0.8900 0.9000 0.9100 0.9200 0.9300 0.9400 0.9500
0.9600 0.9700 0.9800 0.9900 1.0000 1.0100 1.0200 1.0300
1.0400 1.0500 1.0600 1.0700 1.0800 1.0900 1.1000 1.1100
1.1200 1.1300 1.1400 1.1500 1.1600 1.1700 1.1800 1.1900
1.2000 1.2100 1.2200 1.2300 1.2400 1.2500 1.2600 1.2700
1.2800 1.2900 1.3000 1.3100 1.3200 1.3300 1.3400 1.3500
1.3600 1.3700 1.3800 1.3900 1.4000 1.4100 1.4200 1.4300
1.4400 1.4500 1.4600 1.4700 1.4800 1.4900 1.5000 1.5100
1.5200 1.5300 1.5400 1.5500 1.5600 1.5700 1.5800 1.5900
1.6000 1.6100 1.6200 1.6300 1.6400 1.6500 1.6600 1.6700
1.6800 1.6900 1.7000 1.7100 1.7200 1.7300 1.7400 1.7500
1.7600 1.7700 1.7800 1.7900 1.8000 1.8100 1.8200 1.8300
1.8400 1.8500 1.8600 1.8700 1.8800 1.8900 1.9000 1.9100
1.9200 1.9300 1.9400 1.9500 1.9600 1.9700 1.9800 1.9900
2.0000 2.0100 2.0200 2.0300 2.0400 2.0500 2.0600 2.0700
2.0800 2.0900 2.1000 2.1100 2.1200 2.1300 2.1400 2.1500
2.1600 2.1700 2.1800 2.1900 2.2000 2.2100 2.2200 2.2300
2.2400 2.2500 2.2600 2.2700 2.2800 2.2900 2.3000 2.3100
2.3200 2.3300 2.3400 2.3500 2.3600 2.3700 2.3800 2.3900
2.4000 2.4100 2.4200 2.4300 2.4400 2.4500 2.4600 2.4700
2.4800 2.4900 2.5000 2.5100 2.5200 2.5300 2.5400 2.5500
2.5600 2.5700 2.5800 2.5900 2.6000 2.6100 2.6200 2.6300
2.6400 2.6500 2.6600 2.6700 2.6800 2.6900 2.7000 2.7100
2.7200 2.7300 2.7400 2.7500 2.7600 2.7700 2.7800 2.7900
2.8000 2.8100 2.8200 2.8300 2.8400 2.8500 2.8600 2.8700
2.8800 2.8900 2.9000 2.9100 2.9200 2.9300 2.9400 2.9500
2.9600 2.9700 2.9800 2.9900 3.0000 3.0100 3.0200 3.0300
3.0400 3.0500 3.0600 3.0700 3.0800 3.0900 3.1000 3.1100
3.1200 3.1300 3.1400 3.1500 3.1600 3.1700 3.1800 3.1900
3.2000 3.2100 3.2200 3.2300 3.2400 3.2500 3.2600 3.2700
3.2800 3.2900 3.3000 3.3100 3.3200 3.3300 3.3400 3.3500
3.3600 3.3700 3.3800 3.3900 3.4000 3.4100 3.4200 3.4300
3.4400 3.4500 3.4600 3.4700 3.4800 3.4900 3.5000 3.5100
3.5200 3.5300 3.5400 3.5500 3.5600 3.5700 3.5800 3.5900
3.6000 3.6100 3.6200 3.6300 3.6400 3.6500 3.6600 3.6700
3.6800 3.6900 3.7000 3.7100 3.7200 3.7300 3.7400 3.7500
3.7600 3.7700 3.7800 3.7900 3.8000 3.8100 3.8200 3.8300
3.8400 3.8500 3.8600 3.8700 3.8800 3.8900 3.9000 3.9100
3.9200 3.9300 3.9400 3.9500 3.9600 3.9700 3.9800 3.9900
4.0000 4.0100 4.0200 4.0300 4.0400 4.0500 4.0600 4.0700
4.0800 4.0900 4.1000 4.1100 4.1200 4.1300 4.1400 4.1500
4.1600 4.1700 4.1800 4.1900 4.2000 4.2100 4.2200 4.2300
4.2400 4.2500 4.2600 4.2700 4.2800 4.2900 4.3000 4.3100
4.3200 4.3300 4.3400 4.3500 4.3600 4.3700 4.3800 4.3900
4.4000 4.4100 4.4200 4.4300 4.4400 4.4500 4.4600 4.4700
4.4800 4.4900 4.5000 4.5100 4.5200 4.5300 4.5400 4.5500
4.5600 4.5700 4.5800 4.5900 4.6000 4.6100 4.6200 4.6300
4.6400 4.6500 4.6600 4.6700 4.6800 4.6900 4.7000 4.7100
4.7200 4.7300 4.7400 4.7500 4.7600 4.7700 4.7800 4.7900
4.8000 4.8100 4.8200 4.8300 4.8400 4.8500 4.8600 4.8700
4.8800 4.8900 4.9000 4.9100 4.9200 4.9300 4.9400 4.9500
4.9600 4.9700 4.9800 4.9900 5.0000 5.0100 5.0200 5.0300
5.0400 5.0500 5.0600 5.0700 5.0800 5.0900 5.1000 5.1100
5.1200 5.1300 5.1400 5.1500 5.1600 5.1700 5.1800 5.1900
5.2000 5.2100 5.2200 5.2300 5.2400 5.2500 5.2600 5.2700
5.2800 5.2900 5.3000 5.3100 5.3200 5.3300 5.3400 5.3500
5.3600 5.3700 5.3800 5.3900 5.4000 5.4100 5.4200 5.4300
5.4400 5.4500 5.4600 5.4700 5.4800 5.4900 5.5000 5.5100
5.5200 5.5300 5.5400 5.5500 5.5600 5.5700 5.5800 5.5900
5.6000 5.6100 5.6200 5.6300 5.6400 5.6500 5.6600 5.6700
5.6800 5.6900 5.7000 5.7100 5.7200 5.7300 5.7400 5.7500
5.7600 5.7700 5.7800 5.7900 5.8000 5.8100 5.8200 5.8300
5.8400 5.8500 5.8600 5.8700 5.8800 5.8900 5.9000 5.9100
5.9200 5.9300 5.9400 5.9500 5.9600 5.9700 5.9800 5.9900
6.0000 6.0100 6.0200 6.0300 6.0400 6.0500 6.0600 6.0700
6.0800 6.0900 6.1000 6.1100 6.1200 6.1300 6.1400 6.1500
6.1600 6.1700 6.1800 6.1900 6.2000 6.2100 6.2200 6.2300
6.2400 6.2500 6.2600 6.2700 6.2800 6.2900 6.3000 6.3100
6.3200 6.3300 6.3400 6.3500 6.3600 6.3700 6.3800 6.3900
6.4000 6.4100 6.4200 6.4300 6.4400 6.4500 6.4600 6.4700
6.4800 6.4900 6.5000 6.5100 6.5200 6.5300 6.5400 6.5500
6.5600 6.5700 6.5800 6.5900 6.6000 6.6100 6.6200 6.6300
6.6400 6.6500 6.6600 6.6700 6.6800 6.6900 6.7000 6.7100
6.7200 6.7300 6.7400 6.7500 6.7600 6.7700 6.7800 6.7900
6.8000 6.8100 6.8200 6.8300 6.8400 6.8500 6.8600 6.8700
6.8800 6.8900 6.9000 6.9100 6.9200 6.9300 6.9400 6.9500
6.9600 6.9700 6.9800 6.9900 7.0000 7.0100 7.0200 7.0300
7.0400 7.0500 7.0600 7.0700 7.0800 7.0900 7.1000 7.1100
7.1200 7.1300 7.1400 7.1500 7.1600 7.1700 7.1800 7.1900
7.2000 7.2100 7.2200 7.2300 7.2400 7.2500 7.2600 7.2700
7.2800 7.2900 7.3000 7.3100 7.3200 7.3300 7.3400 7.3500
7.3600 7.3700 7.3800 7.3900 7.4000 7.4100 7.4200 7.4300
7.4400 7.4500 7.4600 7.4700 7.4800 7.4900 7.5000 7.5100
7.5200 7.5300 7.5400 7.5500 7.5600 7.5700 7.5800 7.5900
7.6000 7.6100 7.6200 7.6300 7.6400 7.6500 7.6600 7.6700
7.6800 7.6900 7.7000 7.7100 7.7200 7.7300 7.7400 7.7500
7.7600 7.7700 7.7800 7.7900 7.8000 7.8100 7.8200 7.8300
7.8400 7.8500 7.8600 7.8700 7.8800 7.8900 7.9000 7.9100
7.9200 7.9300 7.9400 7.9500 7.9600 7.9700 7.9800 7.9900
8.0000 8.0100 8.0200 8.0300 8.0400 8.0500 8.0600 8.0700
8.0800 8.0900 8.1000 8.1100 8.1200 8.1300 8.1400 8.1500
8.1600 8.1700 8.1800 8.1900 8.2000 8.2100 8.2200 8.2300
8.2400 8.2500 8.2600 8.2700 8.2800 8.2900 8.3000 8.3100
8.3200 8.3300 8.3400 8.3500 8.3600 8.3700 8.3800 8.3900
8.4000 8.4100 8.4200 8.4300 8.4400 8.4500 8.4600 8.4700
8.4800 8.4900 8.5000 8.5100 8.5200 8.5300 8.5400 8.5500
8.5600 8.5700 8.5800 8.5900 8.6000 8.6100 8.6200 8.6300
8.6400 8.6500 8.6600 8.6700 8.6800 8.6900 8.7000 8.7100
8.7200 8.7300 8.7400 8.7500 8.7600 8.7700 8.7800 8.7900
8.8000 8.8100 8.8200 8.8300 8.8400 8.8500 8.8600 8.8700
8.8800 8.8900 8.9000 8.9100 8.9200 8.9300 8.9400 8.9500
8.9600 8.9700 8.9800 8.9900 9.0000 9.0100 9.0200 9.0300
9.0400 9.0500 9.0600 9.0700 9.0800 9.0900 9.1000 9.1100
9.1200 9.1300 9.1400 9.1500 9.1600 9.1700 9.1800 9.1900
9.2000 9.2100 9.2200 9.2300 9.2400 9.2500 9.2600 9.2700
9.2800 9.2900 9.3000 9.3100 9.3200 9.3300 9.3400 9.3500
9.3600 9.3700 9.3800 9.3900 9.4000 9.4100 9.4200 9.4300
9.4400 9.4500 9.4600 9.4700 9.4800 9.4900 9.5000 9.5100
9.5200 9.5300 9.5400 9.5500 9.5600 9.5700 9.5800 9.5900
9.6000 9.6100 9.6200 9.6300 9.6400 9.6500 9.6600 9.6700
9.6800 9.6900 9.7000 9.7100 9.7200 9.7300 9.7400 9.7500
9.7600 9.7700 9.7800 9.7900 9.8000 9.8100 9.8200 9.8300
9.8400 9.8500 9.8600 9.8700 9.8800 9.8900 9.9000 9.9100
9.9200 9.9300 9.9400 9.9500 9.9600 9.9700 9.9800 9.9900
10.0000 10.0100 10.0200 10.0300 10.0400 10.0500 10.0600 10.0700
10.0800 10.0900 10.1000 10.1100 10.1200 10.1300 10.1400 10.1500
10.1600 10.1700 10.1800 10.1900 10.2000 10.2100 10.2200 10.2300
10.2400 10.2500 10.2600 10.2700 10.2800 10.2900 10.3000 10.3100
10.3200 10.3300 10.3400 10.3500 10.3600 10.3700 10.3800 10.3900
10.4000 10.4100 10.4200 10.4300 10.4400 10.4500 10.4600 10.4700
10.4800 10.4900 10.5000 10.5100 10.5200 10.5300 10.5400 10.5500
10.5600 10.5700 10.5800 10.5900 10.6000 10.6100 10.6200 10.6300
10.6400 10.6500 10.6600 10.6700 10.6800 10.6900 10.7000 10.7100
10.7200 10.7300 10.7400 10.7500 10.7600 10.7700 10.7800 10.7900
10.8000 10.8100 10.8200 10.8300 10.8400 10.8500 10.8600 10.8700
10.8800 10.8900 10.9000 10.9100 10.9200 10.9300 10.9400 10.9500
10.9600 10.9700 10.9800 10.9900 11.0000 11.0100 11.0200 11.0300
11.0400 11.0500 11.0600 11.0700 11.0800 11.0900 11.1000 11.1100
11.1200 11.1300 11.1400 11.1500 11.1600 11.1700 11.1800 11.1900
11.2000 11.2100 11.2200 11.2300 11.2400 11.2500 11.2600 11.2700
11.2800 11.2900 11.3000 11.3100 11.3200 11.3300 11.3400 11.3500
11.3600 11.3700 11.3800 11.3900 11.4000 11.4100 11.4200 11.4300
11.4400 11.4500 11.4600 11.4700 11.4800 11.4900 11.5000 11.5100
11.5200 11.5300 11.5400 11.5500 11.5600 11.5700 11.5800 11.5900
11.6000 11.6100 11.6200 11.6300 11.6400 11.6500 11.6600 11.6700
11.6800 11.6900 11.7000 11.7100 11.7200 11.7300 11.7400 11.7500
11.7600 11.7700 11.7800 11.7900 11.8000 11.8100</PP_R><PP_RAB type="real" size="1182" columns="8">
0.0100 0.0100 0.0100 0.0100 0.0100 0.0100 0.0100 0.0100
0.0100 0.0100 0.0100 0.0100 0.0100 0.0100 0.0100 0.0100
0.0100 0.0100 0.0100 0.0100 0.0100 0.0100 0.0100 0.0100
0.0100 0.0100 0.0100 0.0100 0.0100 0.0100 0.0100 0.0100
0.0100 0.0100 0.0100 0.0100 0.0100 0.0100 0.0100 0.0100
0.0100 0.0100 0.0100 0.0100 0.0100 0.0100 0.0100 0.0100
0.0100 0.0100 0.0100 0.0100 0.0100 0.0100 0.0100 0.0100
0.0100 0.0100 0.0100 0.0100 0.0100 0.0100 0.0100 0.0100
0.0100 0.0100 0.0100 0.0100 0.0100 0.0100 0.0100 0.0100
0.0100 0.0100 0.0100 0.0100 0.0100 0.0100 0.0100 0.0100
0.0100 0.0100 0.0100 0.0100 0.0100 0.0100 0.0100 0.0100
0.0100 0.0100 0.0100 0.0100 0.0100 0.0100 0.0100 0.0100
0.0100 0.0100 0.0100 0.0100 0.0100 0.0100 0.0100 0.0100
0.0100 0.0100 0.0100 0.0100 0.0100 0.0100 0.0100 0.0100
0.0100 0.0100 0.0100 0.0100 0.0100 0.0100 0.0100 0.0100
0.0100 0.0100 0.0100 0.0100 0.0100 0.0100 0.0100 0.0100
0.0100 0.0100 0.0100 0.0100 0.0100 0.0100 0.0100 0.0100
0.0100 0.0100 0.0100 0.0100 0.0100 0.0100 0.0100 0.0100
0.0100 0.0100 0.0100 0.0100 0.0100 0.0100 0.0100 0.0100
0.0100 0.0100 0.0100 0.0100 0.0100 0.0100 0.0100 0.0100
0.0100 0.0100 0.0100 0.0100 0.0100 0.0100 0.0100 0.0100
0.0100 0.0100 0.0100 0.0100 0.0100 0.0100 0.0100 0.0100
0.0100 0.0100 0.0100 0.0100 0.0100 0.0100 0.0100 0.0100
0.0100 0.0100 0.0100 0.0100 0.0100 0.0100 0.0100 0.0100
0.0100 0.0100 0.0100 0.0100 0.0100 0.0100 0.0100 0.0100
0.0100 0.0100 0.0100 0.0100 0.0100 0.0100 0.0100 0.0100
0.0100 0.0100 0.0100 0.0100 0.0100 0.0100 0.0100 0.0100
0.0100 0.0100 0.0100 0.0100 0.0100 0.0100 0.0100 0.0100
0.0100 0.0100 0.0100 0.0100 0.0100 0.0100 0.0100 0.0100
0.0100 0.0100 0.0100 0.0100 0.0100 0.0100 0.0100 0.0100
0.0100 0.0100 0.0100 0.0100 0.0100 0.0100 0.0100 0.0100
0.0100 0.0100 0.0100 0.0100 0.0100 0.0100 0.0100 0.0100
0.0100 0.0100 0.0100 0.0100 0.0100 0.0100 0.0100 0.0100
0.0100 0.0100 0.0100 0.0100 0.0100 0.0100 0.0100 0.0100
0.0100 0.0100 0.0100 0.0100 0.0100 0.0100 0.0100 0.0100
0.0100 0.0100 0.0100 0.0100 0.0100 0.0100 0.0100 0.0100
0.0100 0.0100 0.0100 0.0100 0.0100 0.0100 0.0100 0.0100
0.0100 0.0100 0.0100 0.0100 0.0100 0.0100 0.0100 0.0100
0.0100 0.0100 0.0100 0.0100 0.0100 0.0100 0.0100 0.0100
0.0100 0.0100 0.0100 0.0100 0.0100 0.0100 0.0100 0.0100
0.0100 0.0100 0.0100 0.0100 0.0100 0.0100 0.0100 0.0100
0.0100 0.0100 0.0100 0.0100 0.0100 0.0100 0.0100 0.0100
0.0100 0.0100 0.0100 0.0100 0.0100 0.0100 0.0100 0.0100
0.0100 0.0100 0.0100 0.0100 0.0100 0.0100 0.0100 0.0100
0.0100 0.0100 0.0100 0.0100 0.0100 0.0100 0.0100 0.0100
0.0100 0.0100 0.0100 0.0100 0.0100 0.0100 0.0100 0.0100
0.0100 0.0100 0.0100 0.0100 0.0100 0.0100 0.0100 0.0100
0.0100 0.0100 0.0100 0.0100 0.0100 0.0100 0.0100 0.0100
0.0100 0.0100 0.0100 0.0100 0.0100 0.0100 0.0100 0.0100
0.0100 0.0100 0.0100 0.0100 0.0100 0.0100 0.0100 0.0100
0.0100 0.0100 0.0100 0.0100 0.0100 0.0100 0.0100 0.0100
0.0100 0.0100 0.0100 0.0100 0.0100 0.0100 0.0100 0.0100
0.0100 0.0100 0.0100 0.0100 0.0100 0.0100 0.0100 0.0100
0.0100 0.0100 0.0100 0.0100 0.0100 0.0100 0.0100 0.0100
0.0100 0.0100 0.0100 0.0100 0.0100 0.0100 0.0100 0.0100
0.0100 0.0100 0.0100 0.0100 0.0100 0.0100 0.0100 0.0100
0.0100 0.0100 0.0100 0.0100 0.0100 0.0100 0.0100 0.0100
0.0100 0.0100 0.0100 0.0100 0.0100 0.0100 0.0100 0.0100
0.0100 0.0100 0.0100 0.0100 0.0100 0.0100 0.0100 0.0100
0.0100 0.0100 0.0100 0.0100 0.0100 0.0100 0.0100 0.0100
0.0100 0.0100 0.0100 0.0100 0.0100 0.0100 0.0100 0.0100
0.0100 0.0100 0.0100 0.0100 0.0100 0.0100 0.0100 0.0100
0.0100 0.0100 0.0100 0.0100 0.0100 0.0100 0.0100 0.0100
0.0100 0.0100 0.0100 0.0100 0.0100 0.0100 0.0100 0.0100
0.0100 0.0100 0.0100 0.0100 0.0100 0.0100 0.0100 0.0100
0.0100 0.0100 0.0100 0.0100 0.0100 0.0100 0.0100 0.0100
0.0100 0.0100 0.0100 0.0100 0.0100 0.0100 0.0100 0.0100
0.0100 0.0100 0.0100 0.0100 0.0100 0.0100 0.0100 0.0100
0.0100 0.0100 0.0100 0.0100 0.0100 0.0100 0.0100 0.0100
0.0100 0.0100 0.0100 0.0100 0.0100 0.0100 0.0100 0.0100
0.0100 0.0100 0.0100 0.0100 0.0100 0.0100 0.0100 0.0100
0.0100 0.0100 0.0100 0.0100 0.0100 0.0100 0.0100 0.0100
0.0100 0.0100 0.0100 0.0100 0.0100 0.0100 0.0100 0.0100
0.0100 0.0100 0.0100 0.0100 0.0100 0.0100 0.0100 0.0100
0.0100 0.0100 0.0100 0.0100 0.0100 0.0100 0.0100 0.0100
0.0100 0.0100 0.0100 0.0100 0.0100 0.0100 0.0100 0.0100
0.0100 0.0100 0.0100 0.0100 0.0100 0.0100 0.0100 0.0100
0.0100 0.0100 0.0100 0.0100 0.0100 0.0100 0.0100 0.0100
0.0100 0.0100 0.0100 0.0100 0.0100 0.0100 0.0100 0.0100
0.0100 0.0100 0.0100 0.0100 0.0100 0.0100 0.0100 0.0100
0.0100 0.0100 0.0100 0.0100 0.0100 0.0100 0.0100 0.0100
0.0100 0.0100 0.0100 0.0100 0.0100 0.0100 0.0100 0.0100
0.0100 0.0100 0.0100 0.0100 0.0100 0.0100 0.0100 0.0100
0.0100 0.0100 0.0100 0.0100 0.0100 0.0100 0.0100 0.0100
0.0100 0.0100 0.0100 0.0100 0.0100 0.0100 0.0100 0.0100
0.0100 0.0100 0.0100 0.0100 0.0100 0.0100 0.0100 0.0100
0.0100 0.0100 0.0100 0.0100 0.0100 0.0100 0.0100 0.0100
0.0100 0.0100 0.0100 0.0100 0.0100 0.0100 0.0100 0.0100
0.0100 0.0100 0.0100 0.0100 0.0100 0.0100 0.0100 0.0100
0.0100 0.0100 0.0100 0.0100 0.0100 0.0100 0.0100 0.0100
0.0100 0.0100 0.0100 0.0100 0.0100 0.0100 0.0100 0.0100
0.0100 0.0100 0.0100 0.0100 0.0100 0.0100 0.0100 0.0100
0.0100 0.0100 0.0100 0.0100 0.0100 0.0100 0.0100 0.0100
0.0100 0.0100 0.0100 0.0100 0.0100 0.0100 0.0100 0.0100
0.0100 0.0100 0.0100 0.0100 0.0100 0.0100 0.0100 0.0100
0.0100 0.0100 0.0100 0.0100 0.0100 0.0100 0.0100 0.0100
0.0100 0.0100 0.0100 0.0100 0.0100 0.0100 0.0100 0.0100
0.0100 0.0100 0.0100 0.0100 0.0100 0.0100 0.0100 0.0100
0.0100 0.0100 0.0100 0.0100 0.0100 0.0100 0.0100 0.0100
0.0100 0.0100 0.0100 0.0100 0.0100 0.0100 0.0100 0.0100
0.0100 0.0100 0.0100 0.0100 0.0100 0.0100 0.0100 0.0100
0.0100 0.0100 0.0100 0.0100 0.0100 0.0100 0.0100 0.0100
0.0100 0.0100 0.0100 0.0100 0.0100 0.0100 0.0100 0.0100
0.0100 0.0100 0.0100 0.0100 0.0100 0.0100 0.0100 0.0100
0.0100 0.0100 0.0100 0.0100 0.0100 0.0100 0.0100 0.0100
0.0100 0.0100 0.0100 0.0100 0.0100 0.0100 0.0100 0.0100
0.0100 0.0100 0.0100 0.0100 0.0100 0.0100 0.0100 0.0100
0.0100 0.0100 0.0100 0.0100 0.0100 0.0100 0.0100 0.0100
0.0100 0.0100 0.0100 0.0100 0.0100 0.0100 0.0100 0.0100
0.0100 0.0100 0.0100 0.0100 0.0100 0.0100 0.0100 0.0100
0.0100 0.0100 0.0100 0.0100 0.0100 0.0100 0.0100 0.0100
0.0100 0.0100 0.0100 0.0100 0.0100 0.0100 0.0100 0.0100
0.0100 0.0100 0.0100 0.0100 0.0100 0.0100 0.0100 0.0100
0.0100 0.0100 0.0100 0.0100 0.0100 0.0100 0.0100 0.0100
0.0100 0.0100 0.0100 0.0100 0.0100 0.0100 0.0100 0.0100
0.0100 0.0100 0.0100 0.0100 0.0100 0.0100 0.0100 0.0100
0.0100 0.0100 0.0100 0.0100 0.0100 0.0100 0.0100 0.0100
0.0100 0.0100 0.0100 0.0100 0.0100 0.0100 0.0100 0.0100
0.0100 0.0100 0.0100 0.0100 0.0100 0.0100 0.0100 0.0100
0.0100 0.0100 0.0100 0.0100 0.0100 0.0100 0.0100 0.0100
0.0100 0.0100 0.0100 0.0100 0.0100 0.0100 0.0100 0.0100
0.0100 0.0100 0.0100 0.0100 0.0100 0.0100 0.0100 0.0100
0.0100 0.0100 0.0100 0.0100 0.0100 0.0100 0.0100 0.0100
0.0100 0.0100 0.0100 0.0100 0.0100 0.0100 0.0100 0.0100
0.0100 0.0100 0.0100 0.0100 0.0100 0.0100 0.0100 0.0100
0.0100 0.0100 0.0100 0.0100 0.0100 0.0100 0.0100 0.0100
0.0100 0.0100 0.0100 0.0100 0.0100 0.0100 0.0100 0.0100
0.0100 0.0100 0.0100 0.0100 0.0100 0.0100 0.0100 0.0100
0.0100 0.0100 0.0100 0.0100 0.0100 0.0100 0.0100 0.0100
0.0100 0.0100 0.0100 0.0100 0.0100 0.0100 0.0100 0.0100
0.0100 0.0100 0.0100 0.0100 0.0100 0.0100 0.0100 0.0100
0.0100 0.0100 0.0100 0.0100 0.0100 0.0100 0.0100 0.0100
0.0100 0.0100 0.0100 0.0100 0.0100 0.0100 0.0100 0.0100
0.0100 0.0100 0.0100 0.0100 0.0100 0.0100 0.0100 0.0100
0.0100 0.0100 0.0100 0.0100 0.0100 0.0100 0.0100 0.0100
0.0100 0.0100 0.0100 0.0100 0.0100 0.0100 0.0100 0.0100
0.0100 0.0100 0.0100 0.0100 0.0100 0.0100 0.0100 0.0100
0.0100 0.0100 0.0100 0.0100 0.0100 0.0100 0.0100 0.0100
0.0100 0.0100 0.0100 0.0100 0.0100 0.0100 0.0100 0.0100
0.0100 0.0100 0.0100 0.0100 0.0100 0.0100 0.0100 0.0100
0.0100 0.0100 0.0100 0.0100 0.0100 0.0100 0.0100 0.0100
0.0100 0.0100 0.0100 0.0100 0.0100 0.0100 0.0100 0.0100
0.0100 0.0100 0.0100 0.0100 0.0100 0.0100 0.0100 0.0100
0.0100 0.0100 0.0100 0.0100 0.0100 0.0100 0.0100 0.0100
0.0100 0.0100 0.0100 0.0100 0.0100 0.0100 0.0100 0.0100
0.0100 0.0100 0.0100 0.0100 0.0100 0.0100 0.0100 0.0100
0.0100 0.0100 0.0100 0.0100 0.0100 0.0100 0.0100 0.0100
0.0100 0.0100 0.0100 0.0100 0.0100 0.0100</PP_RAB></PP_MESH><PP_LOCAL type="real" size="1182" columns="4">
-1.5557322508E+01 -1.5556940864E+01 -1.5555795994E+01 -1.5553888101E+01
-1.5551217522E+01 -1.5547784728E+01 -1.5543590324E+01 -1.5538635046E+01
-1.5532919762E+01 -1.5526445470E+01 -1.5519213298E+01 -1.5511224501E+01
-1.5502480460E+01 -1.5492982682E+01 -1.5482732794E+01 -1.5471732547E+01
-1.5459983812E+01 -1.5447488576E+01 -1.5434248947E+01 -1.5420267144E+01
-1.5405545502E+01 -1.5390086470E+01 -1.5373892607E+01 -1.5356966583E+01
-1.5339311179E+01 -1.5320929284E+01 -1.5301823895E+01 -1.5281998119E+01
-1.5261455170E+01 -1.5240198368E+01 -1.5218231142E+01 -1.5195557027E+01
-1.5172179667E+01 -1.5148102813E+01 -1.5123330324E+01 -1.5097866166E+01
-1.5071714415E+01 -1.5044879256E+01 -1.5017364981E+01 -1.4989175995E+01
-1.4960316810E+01 -1.4930792051E+01 -1.4900606451E+01 -1.4869764855E+01
-1.4838272220E+01 -1.4806133613E+01 -1.4773354211E+01 -1.4739939305E+01
-1.4705894293E+01 -1.4671224686E+01 -1.4635936104E+01 -1.4600034277E+01
-1.4563525042E+01 -1.4526414345E+01 -1.4488708240E+01 -1.4450412884E+01
-1.4411534541E+01 -1.4372079577E+01 -1.4332054459E+01 -1.4291465754E+01
-1.4250320129E+01 -1.4208624345E+01 -1.4166385258E+01 -1.4123609815E+01
-1.4080305053E+01 -1.4036478097E+01 -1.3992136154E+01 -1.3947286517E+01
-1.3901936553E+01 -1.3856093710E+01 -1.3809765507E+01 -1.3762959534E+01
-1.3715683449E+01 -1.3667944976E+01 -1.3619751898E+01 -1.3571112061E+01
-1.3522033365E+01 -1.3472523765E+01 -1.3422591267E+01 -1.3372243928E+01
-1.3321489851E+01 -1.3270337183E+01 -1.3218794118E+01 -1.3166868890E+01
-1.3114569776E+01 -1.3061905093E+01 -1.3008883200E+01 -1.2955512496E+01
-1.2901801420E+01 -1.2847758455E+01 -1.2793392126E+01 -1.2738711002E+01
-1.2683723700E+01 -1.2628438884E+01 -1.2572865270E+01 -1.2517011626E+01
-1.2460886779E+01 -1.2404499612E+01 -1.2347859072E+01 -1.2290974173E+01
-1.2233853994E+01 -1.2176507688E+01 -1.2118944478E+01 -1.2061173667E+01
-1.2003204632E+01 -1.1945046833E+01 -1.1886709807E+01 -1.1828203174E+01
-1.1769536634E+01 -1.1710719966E+01 -1.1651763029E+01 -1.1592675757E+01
-1.1533468158E+01 -1.1474150311E+01 -1.1414732358E+01 -1.1355224506E+01
-1.1295637015E+01 -1.1235980196E+01 -1.1176264404E+01 -1.1116500030E+01
-1.1056697496E+01 -1.0996867246E+01 -1.0937019741E+01 -1.0877165449E+01
-1.0817314841E+01 -1.0757478380E+01 -1.0697666519E+01 -1.0637889692E+01
-1.0578158305E+01 -1.0518482739E+01 -1.0458873335E+01 -1.0399340400E+01
-1.0339894193E+01 -1.0280544931E+01 -1.0221302783E+01 -1.0162177867E+01
-1.0103180253E+01 -1.0044319961E+01 -9.9856069612E+00 -9.9270511753E+00
-9.8686624799E+00 -9.8104507068E+00 -9.7524256466E+00 -9.6945970508E+00
-9.6369746350E+00 -9.5795680811E+00 -9.5223870404E+00 -9.4654411353E+00
-9.4087399609E+00 -9.3522930858E+00 -9.2961100520E+00 -9.2402003737E+00
-9.1845735348E+00 -9.1292389850E+00 -9.0742061346E+00 -9.0194843473E+00
-8.9650829318E+00 -8.9110111310E+00 -8.8572781098E+00 -8.8038929411E+00
-8.7508645901E+00 -8.6982018963E+00 -8.6459135550E+00 -8.5940080962E+00
-8.5424938630E+00 -8.4913789887E+00 -8.4406713728E+00 -8.3903786563E+00
-8.3405081971E+00 -8.2910670445E+00 -8.2420619143E+00 -8.1934991638E+00
-8.1453847680E+00 -8.0977242955E+00 -8.0505228865E+00 -8.0037852314E+00
-7.9575155512E+00 -7.9117175785E+00 -7.8663945418E+00 -7.8215491496E+00
-7.7771835784E+00 -7.7332994607E+00 -7.6898978764E+00 -7.6469793457E+00
-7.6045438232E+00 -7.5625906953E+00 -7.5211187780E+00 -7.4801263178E+00
-7.4396109933E+00 -7.3995699195E+00 -7.3599996495E+00 -7.3208961842E+00
-7.2822549843E+00 -7.2440709694E+00 -7.2063385369E+00 -7.1690515766E+00
-7.1322034325E+00 -7.0957868607E+00 -7.0597941972E+00 -7.0242173229E+00
-6.9890479108E+00 -6.9542777174E+00 -6.9198987783E+00 -6.8859032367E+00
-6.8522836754E+00 -6.8190326410E+00 -6.7861422095E+00 -6.7536039311E+00
-6.7214091232E+00 -6.6895489190E+00 -6.6580144448E+00 -6.6267972358E+00
-6.5958892923E+00 -6.5652830717E+00 -6.5349710761E+00 -6.5049465897E+00
-6.4752040331E+00 -6.4457389897E+00 -6.4165477230E+00 -6.3876276596E+00
-6.3589763963E+00 -6.3305910292E+00 -6.3024675201E+00 -6.2746014704E+00
-6.2469880320E+00 -6.2196221842E+00 -6.1924988849E+00 -6.1656140291E+00
-6.1389636695E+00 -6.1125440300E+00 -6.0863513169E+00 -6.0603818948E+00
-6.0346321252E+00 -6.0090984043E+00 -5.9837771923E+00 -5.9586651513E+00
-5.9337590395E+00 -5.9090557154E+00 -5.8845520805E+00 -5.8602451292E+00
-5.8361319358E+00 -5.8122096621E+00 -5.7884755454E+00 -5.7649268985E+00
-5.7415611069E+00 -5.7183756276E+00 -5.6953679874E+00 -5.6725357807E+00
-5.6498766674E+00 -5.6273883717E+00 -5.6050686799E+00 -5.5829154387E+00
-5.5609265537E+00 -5.5390999875E+00 -5.5174337583E+00 -5.4959259382E+00
-5.4745746517E+00 -5.4533780741E+00 -5.4323344300E+00 -5.4114419919E+00
-5.3906990788E+00 -5.3701040546E+00 -5.3496553269E+00 -5.3293513455E+00
-5.3091906012E+00 -5.2891716244E+00 -5.2692929835E+00 -5.2495532844E+00
-5.2299511686E+00 -5.2104853119E+00 -5.1911544239E+00 -5.1719572460E+00
-5.1528925507E+00 -5.1339591404E+00 -5.1151558461E+00 -5.0964815265E+00
-5.0779350666E+00 -5.0595153770E+00 -5.0412213925E+00 -5.0230520713E+00
-5.0050063939E+00 -4.9870833618E+00 -4.9692819971E+00 -4.9516013408E+00
-4.9340404524E+00 -4.9165984086E+00 -4.8992743027E+00 -4.8820672431E+00
-4.8649763531E+00 -4.8480007693E+00 -4.8311396412E+00 -4.8143921303E+00
-4.7977574088E+00 -4.7812346594E+00 -4.7648230740E+00 -4.7485218529E+00
-4.7323302043E+00 -4.7162473435E+00 -4.7002724917E+00 -4.6844048759E+00
-4.6686437275E+00 -4.6529882823E+00 -4.6374377794E+00 -4.6219914605E+00
-4.6066485695E+00 -4.5914083518E+00 -4.5762700538E+00 -4.5612329222E+00
-4.5462962037E+00 -4.5314591442E+00 -4.5167209887E+00 -4.5020809806E+00
-4.4875383614E+00 -4.4730923706E+00 -4.4587422448E+00 -4.4444872180E+00
-4.4303265210E+00 -4.4162593815E+00 -4.4022850235E+00 -4.3884026677E+00
-4.3746115309E+00 -4.3609108264E+00 -4.3472997637E+00 -4.3337775487E+00
-4.3203433836E+00 -4.3069964674E+00 -4.2937359955E+00 -4.2805611604E+00
-4.2674711517E+00 -4.2544651565E+00 -4.2415423594E+00 -4.2287019434E+00
-4.2159430896E+00 -4.2032649784E+00 -4.1906667891E+00 -4.1781477010E+00
-4.1657068936E+00 -4.1533435473E+00 -4.1410568438E+00 -4.1288459664E+00
-4.1167101013E+00 -4.1046484374E+00 -4.0926601672E+00 -4.0807444877E+00
-4.0689006004E+00 -4.0571277125E+00 -4.0454250368E+00 -4.0337917932E+00
-4.0222272084E+00 -4.0107305169E+00 -3.9993009617E+00 -3.9879377946E+00
-3.9766402766E+00 -3.9654076788E+00 -3.9542392825E+00 -3.9431343799E+00
-3.9320922744E+00 -3.9211122811E+00 -3.9101937269E+00 -3.8993359514E+00
-3.8885383063E+00 -3.8778001567E+00 -3.8671208806E+00 -3.8564998691E+00
-3.8459365271E+00 -3.8354302729E+00 -3.8249805385E+00 -3.8145867695E+00
-3.8042484252E+00 -3.7939649786E+00 -3.7837359164E+00 -3.7735607386E+00
-3.7634389586E+00 -3.7533701029E+00 -3.7433537111E+00 -3.7333893353E+00
-3.7234765403E+00 -3.7136149029E+00 -3.7038040117E+00 -3.6940434669E+00
-3.6843328798E+00 -3.6746718722E+00 -3.6650600765E+00 -3.6554971348E+00
-3.6459826988E+00 -3.6365164291E+00 -3.6270979948E+00 -3.6177270731E+00
-3.6084033487E+00 -3.5991265136E+00 -3.5898962662E+00 -3.5807123110E+00
-3.5715743584E+00 -3.5624821237E+00 -3.5534353270E+00 -3.5444336925E+00
-3.5354769484E+00 -3.5265648260E+00 -3.5176970595E+00 -3.5088733858E+00
-3.5000935436E+00 -3.4913572733E+00 -3.4826643169E+00 -3.4740144170E+00
-3.4654073170E+00 -3.4568427608E+00 -3.4483204920E+00 -3.4398402543E+00
-3.4314017909E+00 -3.4230048443E+00 -3.4146491562E+00 -3.4063344673E+00
-3.3980605170E+00 -3.3898270439E+00 -3.3816337849E+00 -3.3734804756E+00
-3.3653668502E+00 -3.3572926415E+00 -3.3492575808E+00 -3.3412613981E+00
-3.3333038219E+00 -3.3253845797E+00 -3.3175033974E+00 -3.3096600003E+00
-3.3018541126E+00 -3.2940854575E+00 -3.2863537578E+00 -3.2786587359E+00
-3.2710001138E+00 -3.2633776133E+00 -3.2557909567E+00 -3.2482398663E+00
-3.2407240651E+00 -3.2332432770E+00 -3.2257972267E+00 -3.2183856403E+00
-3.2110082453E+00 -3.2036647710E+00 -3.1963549485E+00 -3.1890785111E+00
-3.1818351943E+00 -3.1746247365E+00 -3.1674468786E+00 -3.1603013644E+00
-3.1531879412E+00 -3.1461063590E+00 -3.1390563718E+00 -3.1320377370E+00
-3.1250502157E+00 -3.1180935728E+00 -3.1111675772E+00 -3.1042720018E+00
-3.0974066238E+00 -3.0905712243E+00 -3.0837655887E+00 -3.0769895065E+00
-3.0702427717E+00 -3.0635251822E+00 -3.0568365405E+00 -3.0501766529E+00
-3.0435453300E+00 -3.0369423863E+00 -3.0303676405E+00 -3.0238209151E+00
-3.0173020364E+00 -3.0108108344E+00 -3.0043471425E+00 -2.9979107977E+00
-2.9915016403E+00 -2.9851195137E+00 -2.9787642642E+00 -2.9724357411E+00
-2.9661337963E+00 -2.9598582842E+00 -2.9536090615E+00 -2.9473859871E+00
-2.9411889219E+00 -2.9350177286E+00 -2.9288722717E+00 -2.9227524168E+00
-2.9166580313E+00 -2.9105889833E+00 -2.9045451421E+00 -2.8985263780E+00
-2.8925325616E+00 -2.8865635644E+00 -2.8806192580E+00 -2.8746995145E+00
-2.8688042059E+00 -2.8629332047E+00 -2.8570863827E+00 -2.8512636121E+00
-2.8454647643E+00 -2.8396897109E+00 -2.8339383227E+00 -2.8282104703E+00
-2.8225060235E+00 -2.8168248518E+00 -2.8111668239E+00 -2.8055318080E+00
-2.7999196716E+00 -2.7943302817E+00 -2.7887635045E+00 -2.7832192057E+00
-2.7776972502E+00 -2.7721975026E+00 -2.7667198268E+00 -2.7612640863E+00
-2.7558301440E+00 -2.7504178625E+00 -2.7450271043E+00 -2.7396577312E+00
-2.7343096053E+00 -2.7289825881E+00 -2.7236765416E+00 -2.7183913275E+00
-2.7131268078E+00 -2.7078828447E+00 -2.7026593006E+00 -2.6974560387E+00
-2.6922729223E+00 -2.6871098157E+00 -2.6819665835E+00 -2.6768430916E+00
-2.6717392063E+00 -2.6666547952E+00 -2.6615897268E+00 -2.6565438710E+00
-2.6515170986E+00 -2.6465092821E+00 -2.6415202952E+00 -2.6365500129E+00
-2.6315983120E+00 -2.6266650707E+00 -2.6217501691E+00 -2.6168534888E+00
-2.6119749132E+00 -2.6071143274E+00 -2.6022716185E+00 -2.5974466753E+00
-2.5926393885E+00 -2.5878496508E+00 -2.5830773567E+00 -2.5783224026E+00
-2.5735846869E+00 -2.5688641097E+00 -2.5641605732E+00 -2.5594739814E+00
-2.5548042401E+00 -2.5501512569E+00 -2.5455149414E+00 -2.5408952047E+00
-2.5362919596E+00 -2.5317051208E+00 -2.5271346045E+00 -2.5225803283E+00
-2.5180422114E+00 -2.5135201747E+00 -2.5090141400E+00 -2.5045240309E+00
-2.5000497718E+00 -2.4955912887E+00 -2.4911485085E+00 -2.4867213591E+00
-2.4823097696E+00 -2.4779136698E+00 -2.4735329903E+00 -2.4691676625E+00
-2.4648176186E+00 -2.4604827912E+00 -2.4561631139E+00 -2.4518585207E+00
-2.4475689458E+00 -2.4432943235E+00 -2.4390345889E+00 -2.4347896771E+00
-2.4305595237E+00 -2.4263440642E+00 -2.4221432239E+00 -2.4179569483E+00
-2.4137851781E+00 -2.4096278506E+00 -2.4054849026E+00 -2.4013562695E+00
-2.3972418855E+00 -2.3931417326E+00 -2.3890556923E+00 -2.3849836785E+00
-2.3809256128E+00 -2.3768814188E+00 -2.3728510232E+00 -2.3688343570E+00
-2.3648312803E+00 -2.3608418109E+00 -2.3568659230E+00 -2.3529035828E+00
-2.3489547593E+00 -2.3450194220E+00 -2.3410975400E+00 -2.3371890814E+00
-2.3332940069E+00 -2.3294122722E+00 -2.3255438257E+00 -2.3216886071E+00
-2.3178465464E+00 -2.3140175624E+00 -2.3102016585E+00 -2.3063986874E+00
-2.3026084432E+00 -2.2988307792E+00 -2.2950655448E+00 -2.2913125897E+00
-2.2875717674E+00 -2.2838428817E+00 -2.2801257522E+00 -2.2764204050E+00
-2.2727267635E+00 -2.2690447639E+00 -2.2653743537E+00 -2.2617154911E+00
-2.2580681435E+00 -2.2544322885E+00 -2.2508079040E+00 -2.2471949747E+00