<UPF version="2.0.1"><PP_INFO>This pseudopotential file has been produced using the code
ONCVPSP (Optimized Norm-Conservinng Vanderbilt PSeudopotential)
scalar-relativistic version 3.3.0 08/16/2017 by D. R. Hamann
The code is available through a link at URL www.mat-simresearch.com.
Documentation with the package provides a full discription of the
input data below.
While it is not required under the terms of the GNU GPL, it is
suggested that you cite D. R. Hamann, Phys. Rev. B 88, 085117 (2013)
in any publication using these pseudopotentials.<PP_INPUTFILE>
# ATOM AND REFERENCE CONFIGURATION
# atsym z nc nv iexc psfile
Kr 36.00 6 2 -116133 upf
#
# n l f energy (Ha)
1 0 2.00
2 0 2.00
2 1 6.00
3 0 2.00
3 1 6.00
3 2 10.00
4 0 2.00
4 1 6.00
#
# PSEUDOPOTENTIAL AND OPTIMIZATION
# lmax
2
#
# l, rc, ep, ncon, nbas, qcut
0 1.75000 -0.84680 4 8 6.10000
1 1.50000 -0.33955 4 7 7.00000
2 1.80000 0.10000 4 7 7.60000
#
# LOCAL POTENTIAL
# lloc, lpopt, rc(5), dvloc0
4 5 1.50000 0.00000
#
# VANDERBILT-KLEINMAN-BYLANDER PROJECTORs
# l, nproj, debl
0 2 3.00000
1 2 3.00000
2 2 4.00000
#
# MODEL CORE CHARGE
# icmod, fcfact, rcfact
3 7.00000 1.24000
#
# LOG DERIVATIVE ANALYSIS
# epsh1, epsh2, depsh
-12.00 12.00 0.02
#
# OUTPUT GRID
# rlmax, drl
6.00 0.01
#
# TEST CONFIGURATIONS
# ncnf
0
# nvcnf
# n l f</PP_INPUTFILE></PP_INFO><PP_HEADER generated="Generated using ONCVPSP code by D. R. Hamann" author="anonymous" date="180301" comment="" element="Kr" pseudo_type="NC" relativistic="scalar" is_ultrasoft="F" is_paw="F" is_coulomb="F" has_so="F" has_wfc="F" has_gipaw="F" core_correction="T" functional="PBESOL" z_valence="    8.00" total_psenergy="  -3.70881711201E+01" rho_cutoff="   1.00500000000E+01" l_max="2" l_local="-1" mesh_size="  1006" number_of_wfc="2" number_of_proj="6"/><PP_MESH><PP_R type="real" size="1006" columns="8">
0.0000 0.0100 0.0200 0.0300 0.0400 0.0500 0.0600 0.0700
0.0800 0.0900 0.1000 0.1100 0.1200 0.1300 0.1400 0.1500
0.1600 0.1700 0.1800 0.1900 0.2000 0.2100 0.2200 0.2300
0.2400 0.2500 0.2600 0.2700 0.2800 0.2900 0.3000 0.3100
0.3200 0.3300 0.3400 0.3500 0.3600 0.3700 0.3800 0.3900
0.4000 0.4100 0.4200 0.4300 0.4400 0.4500 0.4600 0.4700
0.4800 0.4900 0.5000 0.5100 0.5200 0.5300 0.5400 0.5500
0.5600 0.5700 0.5800 0.5900 0.6000 0.6100 0.6200 0.6300
0.6400 0.6500 0.6600 0.6700 0.6800 0.6900 0.7000 0.7100
0.7200 0.7300 0.7400 0.7500 0.7600 0.7700 0.7800 0.7900
0.8000 0.8100 0.8200 0.8300 0.8400 0.8500 0.8600 0.8700
0.8800 0.8900 0.9000 0.9100 0.9200 0.9300 0.9400 0.9500
0.9600 0.9700 0.9800 0.9900 1.0000 1.0100 1.0200 1.0300
1.0400 1.0500 1.0600 1.0700 1.0800 1.0900 1.1000 1.1100
1.1200 1.1300 1.1400 1.1500 1.1600 1.1700 1.1800 1.1900
1.2000 1.2100 1.2200 1.2300 1.2400 1.2500 1.2600 1.2700
1.2800 1.2900 1.3000 1.3100 1.3200 1.3300 1.3400 1.3500
1.3600 1.3700 1.3800 1.3900 1.4000 1.4100 1.4200 1.4300
1.4400 1.4500 1.4600 1.4700 1.4800 1.4900 1.5000 1.5100
1.5200 1.5300 1.5400 1.5500 1.5600 1.5700 1.5800 1.5900
1.6000 1.6100 1.6200 1.6300 1.6400 1.6500 1.6600 1.6700
1.6800 1.6900 1.7000 1.7100 1.7200 1.7300 1.7400 1.7500
1.7600 1.7700 1.7800 1.7900 1.8000 1.8100 1.8200 1.8300
1.8400 1.8500 1.8600 1.8700 1.8800 1.8900 1.9000 1.9100
1.9200 1.9300 1.9400 1.9500 1.9600 1.9700 1.9800 1.9900
2.0000 2.0100 2.0200 2.0300 2.0400 2.0500 2.0600 2.0700
2.0800 2.0900 2.1000 2.1100 2.1200 2.1300 2.1400 2.1500
2.1600 2.1700 2.1800 2.1900 2.2000 2.2100 2.2200 2.2300
2.2400 2.2500 2.2600 2.2700 2.2800 2.2900 2.3000 2.3100
2.3200 2.3300 2.3400 2.3500 2.3600 2.3700 2.3800 2.3900
2.4000 2.4100 2.4200 2.4300 2.4400 2.4500 2.4600 2.4700
2.4800 2.4900 2.5000 2.5100 2.5200 2.5300 2.5400 2.5500
2.5600 2.5700 2.5800 2.5900 2.6000 2.6100 2.6200 2.6300
2.6400 2.6500 2.6600 2.6700 2.6800 2.6900 2.7000 2.7100
2.7200 2.7300 2.7400 2.7500 2.7600 2.7700 2.7800 2.7900
2.8000 2.8100 2.8200 2.8300 2.8400 2.8500 2.8600 2.8700
2.8800 2.8900 2.9000 2.9100 2.9200 2.9300 2.9400 2.9500
2.9600 2.9700 2.9800 2.9900 3.0000 3.0100 3.0200 3.0300
3.0400 3.0500 3.0600 3.0700 3.0800 3.0900 3.1000 3.1100
3.1200 3.1300 3.1400 3.1500 3.1600 3.1700 3.1800 3.1900
3.2000 3.2100 3.2200 3.2300 3.2400 3.2500 3.2600 3.2700
3.2800 3.2900 3.3000 3.3100 3.3200 3.3300 3.3400 3.3500
3.3600 3.3700 3.3800 3.3900 3.4000 3.4100 3.4200 3.4300
3.4400 3.4500 3.4600 3.4700 3.4800 3.4900 3.5000 3.5100
3.5200 3.5300 3.5400 3.5500 3.5600 3.5700 3.5800 3.5900
3.6000 3.6100 3.6200 3.6300 3.6400 3.6500 3.6600 3.6700
3.6800 3.6900 3.7000 3.7100 3.7200 3.7300 3.7400 3.7500
3.7600 3.7700 3.7800 3.7900 3.8000 3.8100 3.8200 3.8300
3.8400 3.8500 3.8600 3.8700 3.8800 3.8900 3.9000 3.9100
3.9200 3.9300 3.9400 3.9500 3.9600 3.9700 3.9800 3.9900
4.0000 4.0100 4.0200 4.0300 4.0400 4.0500 4.0600 4.0700
4.0800 4.0900 4.1000 4.1100 4.1200 4.1300 4.1400 4.1500
4.1600 4.1700 4.1800 4.1900 4.2000 4.2100 4.2200 4.2300
4.2400 4.2500 4.2600 4.2700 4.2800 4.2900 4.3000 4.3100
4.3200 4.3300 4.3400 4.3500 4.3600 4.3700 4.3800 4.3900
4.4000 4.4100 4.4200 4.4300 4.4400 4.4500 4.4600 4.4700
4.4800 4.4900 4.5000 4.5100 4.5200 4.5300 4.5400 4.5500
4.5600 4.5700 4.5800 4.5900 4.6000 4.6100 4.6200 4.6300
4.6400 4.6500 4.6600 4.6700 4.6800 4.6900 4.7000 4.7100
4.7200 4.7300 4.7400 4.7500 4.7600 4.7700 4.7800 4.7900
4.8000 4.8100 4.8200 4.8300 4.8400 4.8500 4.8600 4.8700
4.8800 4.8900 4.9000 4.9100 4.9200 4.9300 4.9400 4.9500
4.9600 4.9700 4.9800 4.9900 5.0000 5.0100 5.0200 5.0300
5.0400 5.0500 5.0600 5.0700 5.0800 5.0900 5.1000 5.1100
5.1200 5.1300 5.1400 5.1500 5.1600 5.1700 5.1800 5.1900
5.2000 5.2100 5.2200 5.2300 5.2400 5.2500 5.2600 5.2700
5.2800 5.2900 5.3000 5.3100 5.3200 5.3300 5.3400 5.3500
5.3600 5.3700 5.3800 5.3900 5.4000 5.4100 5.4200 5.4300
5.4400 5.4500 5.4600 5.4700 5.4800 5.4900 5.5000 5.5100
5.5200 5.5300 5.5400 5.5500 5.5600 5.5700 5.5800 5.5900
5.6000 5.6100 5.6200 5.6300 5.6400 5.6500 5.6600 5.6700
5.6800 5.6900 5.7000 5.7100 5.7200 5.7300 5.7400 5.7500
5.7600 5.7700 5.7800 5.7900 5.8000 5.8100 5.8200 5.8300
5.8400 5.8500 5.8600 5.8700 5.8800 5.8900 5.9000 5.9100
5.9200 5.9300 5.9400 5.9500 5.9600 5.9700 5.9800 5.9900
6.0000 6.0100 6.0200 6.0300 6.0400 6.0500 6.0600 6.0700
6.0800 6.0900 6.1000 6.1100 6.1200 6.1300 6.1400 6.1500
6.1600 6.1700 6.1800 6.1900 6.2000 6.2100 6.2200 6.2300
6.2400 6.2500 6.2600 6.2700 6.2800 6.2900 6.3000 6.3100
6.3200 6.3300 6.3400 6.3500 6.3600 6.3700 6.3800 6.3900
6.4000 6.4100 6.4200 6.4300 6.4400 6.4500 6.4600 6.4700
6.4800 6.4900 6.5000 6.5100 6.5200 6.5300 6.5400 6.5500
6.5600 6.5700 6.5800 6.5900 6.6000 6.6100 6.6200 6.6300
6.6400 6.6500 6.6600 6.6700 6.6800 6.6900 6.7000 6.7100
6.7200 6.7300 6.7400 6.7500 6.7600 6.7700 6.7800 6.7900
6.8000 6.8100 6.8200 6.8300 6.8400 6.8500 6.8600 6.8700
6.8800 6.8900 6.9000 6.9100 6.9200 6.9300 6.9400 6.9500
6.9600 6.9700 6.9800 6.9900 7.0000 7.0100 7.0200 7.0300
7.0400 7.0500 7.0600 7.0700 7.0800 7.0900 7.1000 7.1100
7.1200 7.1300 7.1400 7.1500 7.1600 7.1700 7.1800 7.1900
7.2000 7.2100 7.2200 7.2300 7.2400 7.2500 7.2600 7.2700
7.2800 7.2900 7.3000 7.3100 7.3200 7.3300 7.3400 7.3500
7.3600 7.3700 7.3800 7.3900 7.4000 7.4100 7.4200 7.4300
7.4400 7.4500 7.4600 7.4700 7.4800 7.4900 7.5000 7.5100
7.5200 7.5300 7.5400 7.5500 7.5600 7.5700 7.5800 7.5900
7.6000 7.6100 7.6200 7.6300 7.6400 7.6500 7.6600 7.6700
7.6800 7.6900 7.7000 7.7100 7.7200 7.7300 7.7400 7.7500
7.7600 7.7700 7.7800 7.7900 7.8000 7.8100 7.8200 7.8300
7.8400 7.8500 7.8600 7.8700 7.8800 7.8900 7.9000 7.9100
7.9200 7.9300 7.9400 7.9500 7.9600 7.9700 7.9800 7.9900
8.0000 8.0100 8.0200 8.0300 8.0400 8.0500 8.0600 8.0700
8.0800 8.0900 8.1000 8.1100 8.1200 8.1300 8.1400 8.1500
8.1600 8.1700 8.1800 8.1900 8.2000 8.2100 8.2200 8.2300
8.2400 8.2500 8.2600 8.2700 8.2800 8.2900 8.3000 8.3100
8.3200 8.3300 8.3400 8.3500 8.3600 8.3700 8.3800 8.3900
8.4000 8.4100 8.4200 8.4300 8.4400 8.4500 8.4600 8.4700
8.4800 8.4900 8.5000 8.5100 8.5200 8.5300 8.5400 8.5500
8.5600 8.5700 8.5800 8.5900 8.6000 8.6100 8.6200 8.6300
8.6400 8.6500 8.6600 8.6700 8.6800 8.6900 8.7000 8.7100
8.7200 8.7300 8.7400 8.7500 8.7600 8.7700 8.7800 8.7900
8.8000 8.8100 8.8200 8.8300 8.8400 8.8500 8.8600 8.8700
8.8800 8.8900 8.9000 8.9100 8.9200 8.9300 8.9400 8.9500
8.9600 8.9700 8.9800 8.9900 9.0000 9.0100 9.0200 9.0300
9.0400 9.0500 9.0600 9.0700 9.0800 9.0900 9.1000 9.1100
9.1200 9.1300 9.1400 9.1500 9.1600 9.1700 9.1800 9.1900
9.2000 9.2100 9.2200 9.2300 9.2400 9.2500 9.2600 9.2700
9.2800 9.2900 9.3000 9.3100 9.3200 9.3300 9.3400 9.3500
9.3600 9.3700 9.3800 9.3900 9.4000 9.4100 9.4200 9.4300
9.4400 9.4500 9.4600 9.4700 9.4800 9.4900 9.5000 9.5100
9.5200 9.5300 9.5400 9.5500 9.5600 9.5700 9.5800 9.5900
9.6000 9.6100 9.6200 9.6300 9.6400 9.6500 9.6600 9.6700
9.6800 9.6900 9.7000 9.7100 9.7200 9.7300 9.7400 9.7500
9.7600 9.7700 9.7800 9.7900 9.8000 9.8100 9.8200 9.8300
9.8400 9.8500 9.8600 9.8700 9.8800 9.8900 9.9000 9.9100
9.9200 9.9300 9.9400 9.9500 9.9600 9.9700 9.9800 9.9900
10.0000 10.0100 10.0200 10.0300 10.0400 10.0500</PP_R><PP_RAB type="real" size="1006" columns="8">
0.0100 0.0100 0.0100 0.0100 0.0100 0.0100 0.0100 0.0100
0.0100 0.0100 0.0100 0.0100 0.0100 0.0100 0.0100 0.0100
0.0100 0.0100 0.0100 0.0100 0.0100 0.0100 0.0100 0.0100
0.0100 0.0100 0.0100 0.0100 0.0100 0.0100 0.0100 0.0100
0.0100 0.0100 0.0100 0.0100 0.0100 0.0100 0.0100 0.0100
0.0100 0.0100 0.0100 0.0100 0.0100 0.0100 0.0100 0.0100
0.0100 0.0100 0.0100 0.0100 0.0100 0.0100 0.0100 0.0100
0.0100 0.0100 0.0100 0.0100 0.0100 0.0100 0.0100 0.0100
0.0100 0.0100 0.0100 0.0100 0.0100 0.0100 0.0100 0.0100
0.0100 0.0100 0.0100 0.0100 0.0100 0.0100 0.0100 0.0100
0.0100 0.0100 0.0100 0.0100 0.0100 0.0100 0.0100 0.0100
0.0100 0.0100 0.0100 0.0100 0.0100 0.0100 0.0100 0.0100
0.0100 0.0100 0.0100 0.0100 0.0100 0.0100 0.0100 0.0100
0.0100 0.0100 0.0100 0.0100 0.0100 0.0100 0.0100 0.0100
0.0100 0.0100 0.0100 0.0100 0.0100 0.0100 0.0100 0.0100
0.0100 0.0100 0.0100 0.0100 0.0100 0.0100 0.0100 0.0100
0.0100 0.0100 0.0100 0.0100 0.0100 0.0100 0.0100 0.0100
0.0100 0.0100 0.0100 0.0100 0.0100 0.0100 0.0100 0.0100
0.0100 0.0100 0.0100 0.0100 0.0100 0.0100 0.0100 0.0100
0.0100 0.0100 0.0100 0.0100 0.0100 0.0100 0.0100 0.0100
0.0100 0.0100 0.0100 0.0100 0.0100 0.0100 0.0100 0.0100
0.0100 0.0100 0.0100 0.0100 0.0100 0.0100 0.0100 0.0100
0.0100 0.0100 0.0100 0.0100 0.0100 0.0100 0.0100 0.0100
0.0100 0.0100 0.0100 0.0100 0.0100 0.0100 0.0100 0.0100
0.0100 0.0100 0.0100 0.0100 0.0100 0.0100 0.0100 0.0100
0.0100 0.0100 0.0100 0.0100 0.0100 0.0100 0.0100 0.0100
0.0100 0.0100 0.0100 0.0100 0.0100 0.0100 0.0100 0.0100
0.0100 0.0100 0.0100 0.0100 0.0100 0.0100 0.0100 0.0100
0.0100 0.0100 0.0100 0.0100 0.0100 0.0100 0.0100 0.0100
0.0100 0.0100 0.0100 0.0100 0.0100 0.0100 0.0100 0.0100
0.0100 0.0100 0.0100 0.0100 0.0100 0.0100 0.0100 0.0100
0.0100 0.0100 0.0100 0.0100 0.0100 0.0100 0.0100 0.0100
0.0100 0.0100 0.0100 0.0100 0.0100 0.0100 0.0100 0.0100
0.0100 0.0100 0.0100 0.0100 0.0100 0.0100 0.0100 0.0100
0.0100 0.0100 0.0100 0.0100 0.0100 0.0100 0.0100 0.0100
0.0100 0.0100 0.0100 0.0100 0.0100 0.0100 0.0100 0.0100
0.0100 0.0100 0.0100 0.0100 0.0100 0.0100 0.0100 0.0100
0.0100 0.0100 0.0100 0.0100 0.0100 0.0100 0.0100 0.0100
0.0100 0.0100 0.0100 0.0100 0.0100 0.0100 0.0100 0.0100
0.0100 0.0100 0.0100 0.0100 0.0100 0.0100 0.0100 0.0100
0.0100 0.0100 0.0100 0.0100 0.0100 0.0100 0.0100 0.0100
0.0100 0.0100 0.0100 0.0100 0.0100 0.0100 0.0100 0.0100
0.0100 0.0100 0.0100 0.0100 0.0100 0.0100 0.0100 0.0100
0.0100 0.0100 0.0100 0.0100 0.0100 0.0100 0.0100 0.0100
0.0100 0.0100 0.0100 0.0100 0.0100 0.0100 0.0100 0.0100
0.0100 0.0100 0.0100 0.0100 0.0100 0.0100 0.0100 0.0100
0.0100 0.0100 0.0100 0.0100 0.0100 0.0100 0.0100 0.0100
0.0100 0.0100 0.0100 0.0100 0.0100 0.0100 0.0100 0.0100
0.0100 0.0100 0.0100 0.0100 0.0100 0.0100 0.0100 0.0100
0.0100 0.0100 0.0100 0.0100 0.0100 0.0100 0.0100 0.0100
0.0100 0.0100 0.0100 0.0100 0.0100 0.0100 0.0100 0.0100
0.0100 0.0100 0.0100 0.0100 0.0100 0.0100 0.0100 0.0100
0.0100 0.0100 0.0100 0.0100 0.0100 0.0100 0.0100 0.0100
0.0100 0.0100 0.0100 0.0100 0.0100 0.0100 0.0100 0.0100
0.0100 0.0100 0.0100 0.0100 0.0100 0.0100 0.0100 0.0100
0.0100 0.0100 0.0100 0.0100 0.0100 0.0100 0.0100 0.0100
0.0100 0.0100 0.0100 0.0100 0.0100 0.0100 0.0100 0.0100
0.0100 0.0100 0.0100 0.0100 0.0100 0.0100 0.0100 0.0100
0.0100 0.0100 0.0100 0.0100 0.0100 0.0100 0.0100 0.0100
0.0100 0.0100 0.0100 0.0100 0.0100 0.0100 0.0100 0.0100
0.0100 0.0100 0.0100 0.0100 0.0100 0.0100 0.0100 0.0100
0.0100 0.0100 0.0100 0.0100 0.0100 0.0100 0.0100 0.0100
0.0100 0.0100 0.0100 0.0100 0.0100 0.0100 0.0100 0.0100
0.0100 0.0100 0.0100 0.0100 0.0100 0.0100 0.0100 0.0100
0.0100 0.0100 0.0100 0.0100 0.0100 0.0100 0.0100 0.0100
0.0100 0.0100 0.0100 0.0100 0.0100 0.0100 0.0100 0.0100
0.0100 0.0100 0.0100 0.0100 0.0100 0.0100 0.0100 0.0100
0.0100 0.0100 0.0100 0.0100 0.0100 0.0100 0.0100 0.0100
0.0100 0.0100 0.0100 0.0100 0.0100 0.0100 0.0100 0.0100
0.0100 0.0100 0.0100 0.0100 0.0100 0.0100 0.0100 0.0100
0.0100 0.0100 0.0100 0.0100 0.0100 0.0100 0.0100 0.0100
0.0100 0.0100 0.0100 0.0100 0.0100 0.0100 0.0100 0.0100
0.0100 0.0100 0.0100 0.0100 0.0100 0.0100 0.0100 0.0100
0.0100 0.0100 0.0100 0.0100 0.0100 0.0100 0.0100 0.0100
0.0100 0.0100 0.0100 0.0100 0.0100 0.0100 0.0100 0.0100
0.0100 0.0100 0.0100 0.0100 0.0100 0.0100 0.0100 0.0100
0.0100 0.0100 0.0100 0.0100 0.0100 0.0100 0.0100 0.0100
0.0100 0.0100 0.0100 0.0100 0.0100 0.0100 0.0100 0.0100
0.0100 0.0100 0.0100 0.0100 0.0100 0.0100 0.0100 0.0100
0.0100 0.0100 0.0100 0.0100 0.0100 0.0100 0.0100 0.0100
0.0100 0.0100 0.0100 0.0100 0.0100 0.0100 0.0100 0.0100
0.0100 0.0100 0.0100 0.0100 0.0100 0.0100 0.0100 0.0100
0.0100 0.0100 0.0100 0.0100 0.0100 0.0100 0.0100 0.0100
0.0100 0.0100 0.0100 0.0100 0.0100 0.0100 0.0100 0.0100
0.0100 0.0100 0.0100 0.0100 0.0100 0.0100 0.0100 0.0100
0.0100 0.0100 0.0100 0.0100 0.0100 0.0100 0.0100 0.0100
0.0100 0.0100 0.0100 0.0100 0.0100 0.0100 0.0100 0.0100
0.0100 0.0100 0.0100 0.0100 0.0100 0.0100 0.0100 0.0100
0.0100 0.0100 0.0100 0.0100 0.0100 0.0100 0.0100 0.0100
0.0100 0.0100 0.0100 0.0100 0.0100 0.0100 0.0100 0.0100
0.0100 0.0100 0.0100 0.0100 0.0100 0.0100 0.0100 0.0100
0.0100 0.0100 0.0100 0.0100 0.0100 0.0100 0.0100 0.0100
0.0100 0.0100 0.0100 0.0100 0.0100 0.0100 0.0100 0.0100
0.0100 0.0100 0.0100 0.0100 0.0100 0.0100 0.0100 0.0100
0.0100 0.0100 0.0100 0.0100 0.0100 0.0100 0.0100 0.0100
0.0100 0.0100 0.0100 0.0100 0.0100 0.0100 0.0100 0.0100
0.0100 0.0100 0.0100 0.0100 0.0100 0.0100 0.0100 0.0100
0.0100 0.0100 0.0100 0.0100 0.0100 0.0100 0.0100 0.0100
0.0100 0.0100 0.0100 0.0100 0.0100 0.0100 0.0100 0.0100
0.0100 0.0100 0.0100 0.0100 0.0100 0.0100 0.0100 0.0100
0.0100 0.0100 0.0100 0.0100 0.0100 0.0100 0.0100 0.0100
0.0100 0.0100 0.0100 0.0100 0.0100 0.0100 0.0100 0.0100
0.0100 0.0100 0.0100 0.0100 0.0100 0.0100 0.0100 0.0100
0.0100 0.0100 0.0100 0.0100 0.0100 0.0100 0.0100 0.0100
0.0100 0.0100 0.0100 0.0100 0.0100 0.0100 0.0100 0.0100
0.0100 0.0100 0.0100 0.0100 0.0100 0.0100 0.0100 0.0100
0.0100 0.0100 0.0100 0.0100 0.0100 0.0100 0.0100 0.0100
0.0100 0.0100 0.0100 0.0100 0.0100 0.0100 0.0100 0.0100
0.0100 0.0100 0.0100 0.0100 0.0100 0.0100 0.0100 0.0100
0.0100 0.0100 0.0100 0.0100 0.0100 0.0100 0.0100 0.0100
0.0100 0.0100 0.0100 0.0100 0.0100 0.0100 0.0100 0.0100
0.0100 0.0100 0.0100 0.0100 0.0100 0.0100 0.0100 0.0100
0.0100 0.0100 0.0100 0.0100 0.0100 0.0100 0.0100 0.0100
0.0100 0.0100 0.0100 0.0100 0.0100 0.0100 0.0100 0.0100
0.0100 0.0100 0.0100 0.0100 0.0100 0.0100 0.0100 0.0100
0.0100 0.0100 0.0100 0.0100 0.0100 0.0100 0.0100 0.0100
0.0100 0.0100 0.0100 0.0100 0.0100 0.0100 0.0100 0.0100
0.0100 0.0100 0.0100 0.0100 0.0100 0.0100 0.0100 0.0100
0.0100 0.0100 0.0100 0.0100 0.0100 0.0100 0.0100 0.0100
0.0100 0.0100 0.0100 0.0100 0.0100 0.0100 0.0100 0.0100
0.0100 0.0100 0.0100 0.0100 0.0100 0.0100 0.0100 0.0100
0.0100 0.0100 0.0100 0.0100 0.0100 0.0100 0.0100 0.0100
0.0100 0.0100 0.0100 0.0100 0.0100 0.0100 0.0100 0.0100
0.0100 0.0100 0.0100 0.0100 0.0100 0.0100 0.0100 0.0100
0.0100 0.0100 0.0100 0.0100 0.0100 0.0100 0.0100 0.0100
0.0100 0.0100 0.0100 0.0100 0.0100 0.0100</PP_RAB></PP_MESH><PP_LOCAL type="real" size="1006" columns="4">
-2.2606454184E+01 -2.2605534526E+01 -2.2602775843E+01 -2.2598179036E+01
-2.2591745604E+01 -2.2583477641E+01 -2.2573377837E+01 -2.2561449476E+01
-2.2547696432E+01 -2.2532123167E+01 -2.2514734724E+01 -2.2495536729E+01
-2.2474535377E+01 -2.2451737437E+01 -2.2427150237E+01 -2.2400781663E+01
-2.2372640149E+01 -2.2342734673E+01 -2.2311074744E+01 -2.2277670398E+01
-2.2242532187E+01 -2.2205671167E+01 -2.2167098892E+01 -2.2126827402E+01
-2.2084869212E+01 -2.2041237300E+01 -2.1995945095E+01 -2.1949006466E+01
-2.1900435712E+01 -2.1850247545E+01 -2.1798457079E+01 -2.1745079819E+01
-2.1690131647E+01 -2.1633628807E+01 -2.1575587897E+01 -2.1516025851E+01
-2.1454959931E+01 -2.1392407711E+01 -2.1328387066E+01 -2.1262916163E+01
-2.1196013445E+01 -2.1127697625E+01 -2.1057987671E+01 -2.0986902799E+01
-2.0914462465E+01 -2.0840686353E+01 -2.0765594368E+01 -2.0689206631E+01
-2.0611543470E+01 -2.0532625418E+01 -2.0452473202E+01 -2.0371107746E+01
-2.0288550163E+01 -2.0204821755E+01 -2.0119944012E+01 -2.0033938609E+01
-1.9946827408E+01 -1.9858632462E+01 -1.9769376013E+01 -1.9679080494E+01
-1.9587768540E+01 -1.9495462987E+01 -1.9402186875E+01 -1.9307963464E+01
-1.9212816232E+01 -1.9116768884E+01 -1.9019845366E+01 -1.8922069868E+01
-1.8823466834E+01 -1.8724060977E+01 -1.8623877280E+01 -1.8522941016E+01
-1.8421277752E+01 -1.8318913361E+01 -1.8215874034E+01 -1.8112186286E+01
-1.8007876972E+01 -1.7902973288E+01 -1.7797502788E+01 -1.7691493383E+01
-1.7584973353E+01 -1.7477971350E+01 -1.7370516402E+01 -1.7262637917E+01
-1.7154365677E+01 -1.7045729845E+01 -1.6936760956E+01 -1.6827489912E+01
-1.6717947975E+01 -1.6608166756E+01 -1.6498178201E+01 -1.6388014579E+01
-1.6277708460E+01 -1.6167292697E+01 -1.6056800402E+01 -1.5946264923E+01
-1.5835719813E+01 -1.5725198801E+01 -1.5614735760E+01 -1.5504364675E+01
-1.5394119604E+01 -1.5284034642E+01 -1.5174143880E+01 -1.5064481368E+01
-1.4955081070E+01 -1.4845976823E+01 -1.4737202293E+01 -1.4628790931E+01
-1.4520775928E+01 -1.4413190173E+01 -1.4306066201E+01 -1.4199436155E+01
-1.4093331735E+01 -1.3987784156E+01 -1.3882824098E+01 -1.3778481666E+01
-1.3674786340E+01 -1.3571766933E+01 -1.3469451542E+01 -1.3367867507E+01
-1.3267041365E+01 -1.3166998803E+01 -1.3067764617E+01 -1.2969362666E+01
-1.2871815828E+01 -1.2775145958E+01 -1.2679373843E+01 -1.2584519161E+01
-1.2490600437E+01 -1.2397635000E+01 -1.2305638947E+01 -1.2214627095E+01
-1.2124612943E+01 -1.2035608638E+01 -1.1947624925E+01 -1.1860671119E+01
-1.1774755061E+01 -1.1689883084E+01 -1.1606059975E+01 -1.1523288942E+01
-1.1441571575E+01 -1.1360907815E+01 -1.1281295924E+01 -1.1202732445E+01
-1.1125212164E+01 -1.1048728084E+01 -1.0973271396E+01 -1.0898831666E+01
-1.0825396533E+01 -1.0752951634E+01 -1.0681479375E+01 -1.0610957655E+01
-1.0541361741E+01 -1.0472665770E+01 -1.0404846240E+01 -1.0337883097E+01
-1.0271758294E+01 -1.0206455102E+01 -1.0141956474E+01 -1.0078245386E+01
-1.0015305593E+01 -9.9531214425E+00 -9.8916780683E+00 -9.8309611667E+00
-9.7709567847E+00 -9.7116514540E+00 -9.6530322241E+00 -9.5950865934E+00
-9.5378024846E+00 -9.4811682336E+00 -9.4251725923E+00 -9.3698046313E+00
-9.3150537115E+00 -9.2609096266E+00 -9.2073626032E+00 -9.1544037623E+00
-9.1020255382E+00 -9.0502211658E+00 -8.9989846946E+00 -8.9483102314E+00
-8.8981908912E+00 -8.8486192737E+00 -8.7995875974E+00 -8.7510879475E+00
-8.7031128815E+00 -8.6556554381E+00 -8.6087087953E+00 -8.5622661723E+00
-8.5163208816E+00 -8.4708662322E+00 -8.4258955990E+00 -8.3814025213E+00
-8.3373806221E+00 -8.2938235787E+00 -8.2507251257E+00 -8.2080790630E+00
-8.1658792534E+00 -8.1241196142E+00 -8.0827941145E+00 -8.0418967734E+00
-8.0014216579E+00 -7.9613628813E+00 -7.9217146018E+00 -7.8824710218E+00
-7.8436263872E+00 -7.8051749871E+00 -7.7671111543E+00 -7.7294292655E+00
-7.6921237417E+00 -7.6551890499E+00 -7.6186197035E+00 -7.5824102643E+00
-7.5465553439E+00 -7.5110496052E+00 -7.4758877647E+00 -7.4410645943E+00
-7.4065749238E+00 -7.3724136423E+00 -7.3385757013E+00 -7.3050561166E+00
-7.2718499704E+00 -7.2389524139E+00 -7.2063586695E+00 -7.1740640327E+00
-7.1420638745E+00 -7.1103536431E+00 -7.0789288663E+00 -7.0477851526E+00
-7.0169181934E+00 -6.9863237641E+00 -6.9559977255E+00 -6.9259360253E+00
-6.8961346984E+00 -6.8665898681E+00 -6.8372977465E+00 -6.8082546350E+00
-6.7794569241E+00 -6.7509010936E+00 -6.7225837124E+00 -6.6945014375E+00
-6.6666510140E+00 -6.6390292734E+00 -6.6116331332E+00 -6.5844595951E+00
-6.5575057434E+00 -6.5307687438E+00 -6.5042458410E+00 -6.4779343571E+00
-6.4518316888E+00 -6.4259353057E+00 -6.4002427474E+00 -6.3747516209E+00
-6.3494595981E+00 -6.3243644130E+00 -6.2994638585E+00 -6.2747557838E+00
-6.2502380911E+00 -6.2259087331E+00 -6.2017657094E+00 -6.1778070638E+00
-6.1540308812E+00 -6.1304352846E+00 -6.1070184325E+00 -6.0837785155E+00
-6.0607137540E+00 -6.0378223953E+00 -6.0151027113E+00 -5.9925529956E+00
-5.9701715619E+00 -5.9479567410E+00 -5.9259068797E+00 -5.9040203382E+00
-5.8822954892E+00 -5.8607307157E+00 -5.8393244101E+00 -5.8180749733E+00
-5.7969808131E+00 -5.7760403444E+00 -5.7552519879E+00 -5.7346141699E+00
-5.7141253225E+00 -5.6937838830E+00 -5.6735882946E+00 -5.6535370063E+00
-5.6336284736E+00 -5.6138611587E+00 -5.5942335318E+00 -5.5747440711E+00
-5.5553912646E+00 -5.5361736100E+00 -5.5170896168E+00 -5.4981378064E+00
-5.4793167139E+00 -5.4606248888E+00 -5.4420608961E+00 -5.4236233177E+00
-5.4053107531E+00 -5.3871218206E+00 -5.3690551581E+00 -5.3511094243E+00
-5.3332832991E+00 -5.3155754846E+00 -5.2979847055E+00 -5.2805097099E+00
-5.2631492697E+00 -5.2459021805E+00 -5.2287672622E+00 -5.2117433589E+00
-5.1948293392E+00 -5.1780240953E+00 -5.1613265436E+00 -5.1447356238E+00
-5.1282502986E+00 -5.1118695530E+00 -5.0955923939E+00 -5.0794178493E+00
-5.0633449672E+00 -5.0473728151E+00 -5.0315004791E+00 -5.0157270624E+00
-5.0000516850E+00 -4.9844734823E+00 -4.9689916039E+00 -4.9536052132E+00
-4.9383134857E+00 -4.9231156083E+00 -4.9080107783E+00 -4.8929982024E+00
-4.8780770960E+00 -4.8632466819E+00 -4.8485061901E+00 -4.8338548566E+00
-4.8192919230E+00 -4.8048166358E+00 -4.7904282460E+00 -4.7761260084E+00
-4.7619091819E+00 -4.7477770285E+00 -4.7337288133E+00 -4.7197638048E+00
-4.7058812745E+00 -4.6920804972E+00 -4.6783607507E+00 -4.6647213162E+00
-4.6511614790E+00 -4.6376805279E+00 -4.6242777561E+00 -4.6109524618E+00
-4.5977039477E+00 -4.5845315225E+00 -4.5714345005E+00 -4.5584122025E+00
-4.5454639561E+00 -4.5325890963E+00 -4.5197869655E+00 -4.5070569146E+00
-4.4943983026E+00 -4.4818104975E+00 -4.4692928765E+00 -4.4568448263E+00
-4.4444657430E+00 -4.4321550325E+00 -4.4199121109E+00 -4.4077364043E+00
-4.3956273487E+00 -4.3835843910E+00 -4.3716069863E+00 -4.3596945991E+00
-4.3478467044E+00 -4.3360627838E+00 -4.3243423289E+00 -4.3126848544E+00
-4.3010898752E+00 -4.2895569117E+00 -4.2780855064E+00 -4.2666751639E+00
-4.2553254048E+00 -4.2440357595E+00 -4.2328057736E+00 -4.2216350001E+00
-4.2105229929E+00 -4.1994693336E+00 -4.1884736252E+00 -4.1775354021E+00
-4.1666544254E+00 -4.1558304093E+00 -4.1450630488E+00 -4.1343520492E+00
-4.1236970814E+00 -4.1130976218E+00 -4.1025531773E+00 -4.0920632139E+00
-4.0816272153E+00 -4.0712445509E+00 -4.0609145660E+00 -4.0506366458E+00
-4.0404102078E+00 -4.0302345296E+00 -4.0201093893E+00 -4.0100344607E+00
-4.0000094545E+00 -3.9900341318E+00 -3.9801082992E+00 -3.9702316116E+00
-3.9604037904E+00 -3.9506245452E+00 -3.9408935942E+00 -3.9312106182E+00
-3.9215752166E+00 -3.9119870132E+00 -3.9024456254E+00 -3.8929506309E+00
-3.8835016715E+00 -3.8740984457E+00 -3.8647406254E+00 -3.8554278900E+00
-3.8461599420E+00 -3.8369364594E+00 -3.8277571123E+00 -3.8186215847E+00
-3.8095295627E+00 -3.8004807326E+00 -3.7914747876E+00 -3.7825114253E+00
-3.7735903441E+00 -3.7647112458E+00 -3.7558738347E+00 -3.7470778181E+00
-3.7383229057E+00 -3.7296088099E+00 -3.7209352462E+00 -3.7123019323E+00
-3.7037085887E+00 -3.6951549385E+00 -3.6866407073E+00 -3.6781656232E+00
-3.6697294169E+00 -3.6613318214E+00 -3.6529725723E+00 -3.6446514075E+00
-3.6363680673E+00 -3.6281222945E+00 -3.6199138340E+00 -3.6117424331E+00
-3.6036078414E+00 -3.5955098107E+00 -3.5874480952E+00 -3.5794224510E+00
-3.5714326366E+00 -3.5634784126E+00 -3.5555595417E+00 -3.5476757888E+00
-3.5398269206E+00 -3.5320127062E+00 -3.5242329166E+00 -3.5164873247E+00
-3.5087757057E+00 -3.5010978363E+00 -3.4934534957E+00 -3.4858424645E+00
-3.4782645256E+00 -3.4707194635E+00 -3.4632070649E+00 -3.4557271179E+00
-3.4482794128E+00 -3.4408637416E+00 -3.4334798980E+00 -3.4261276776E+00
-3.4188068775E+00 -3.4115172968E+00 -3.4042587363E+00 -3.3970309983E+00
-3.3898338869E+00 -3.3826672078E+00 -3.3755307685E+00 -3.3684243779E+00
-3.3613478465E+00 -3.3543009867E+00 -3.3472836121E+00 -3.3402955381E+00
-3.3333365816E+00 -3.3264065609E+00 -3.3195052959E+00 -3.3126326080E+00
-3.3057883200E+00 -3.2989722563E+00 -3.2921842426E+00 -3.2854241061E+00
-3.2786916754E+00 -3.2719867806E+00 -3.2653092531E+00 -3.2586589255E+00
-3.2520356321E+00 -3.2454392084E+00 -3.2388694910E+00 -3.2323263183E+00
-3.2258095296E+00 -3.2193189656E+00 -3.2128544684E+00 -3.2064158812E+00
-3.2000030485E+00 -3.1936158162E+00 -3.1872540312E+00 -3.1809175418E+00
-3.1746061973E+00 -3.1683198484E+00 -3.1620583469E+00 -3.1558215458E+00
-3.1496092991E+00 -3.1434214621E+00 -3.1372578913E+00 -3.1311184442E+00
-3.1250029794E+00 -3.1189113566E+00 -3.1128434368E+00 -3.1067990818E+00
-3.1007781545E+00 -3.0947805192E+00 -3.0888060407E+00 -3.0828545854E+00
-3.0769260203E+00 -3.0710202137E+00 -3.0651370347E+00 -3.0592763536E+00
-3.0534380415E+00 -3.0476219706E+00 -3.0418280141E+00 -3.0360560460E+00
-3.0303059414E+00 -3.0245775764E+00 -3.0188708278E+00 -3.0131855736E+00
-3.0075216925E+00 -3.0018790642E+00 -2.9962575694E+00 -2.9906570894E+00
-2.9850775067E+00 -2.9795187046E+00 -2.9739805671E+00 -2.9684629793E+00
-2.9629658269E+00 -2.9574889967E+00 -2.9520323761E+00 -2.9465958535E+00
-2.9411793181E+00 -2.9357826599E+00 -2.9304057695E+00 -2.9250485387E+00
-2.9197108598E+00 -2.9143926258E+00 -2.9090937309E+00 -2.9038140696E+00
-2.8985535375E+00 -2.8933120307E+00 -2.8880894463E+00 -2.8828856819E+00
-2.8777006360E+00 -2.8725342078E+00 -2.8673862972E+00 -2.8622568048E+00
-2.8571456320E+00 -2.8520526807E+00 -2.8469778537E+00 -2.8419210544E+00
-2.8368821870E+00 -2.8318611562E+00 -2.8268578675E+00 -2.8218722270E+00
-2.8169041414E+00 -2.8119535183E+00 -2.8070202658E+00 -2.8021042925E+00
-2.7972055078E+00 -2.7923238218E+00 -2.7874591450E+00 -2.7826113888E+00
-2.7777804650E+00 -2.7729662860E+00 -2.7681687651E+00 -2.7633878158E+00
-2.7586233525E+00 -2.7538752900E+00 -2.7491435437E+00 -2.7444280298E+00
-2.7397286649E+00 -2.7350453660E+00 -2.7303780511E+00 -2.7257266383E+00
-2.7210910466E+00 -2.7164711953E+00 -2.7118670045E+00 -2.7072783946E+00
-2.7027052868E+00 -2.6981476024E+00 -2.6936052638E+00 -2.6890781934E+00
-2.6845663144E+00 -2.6800695506E+00 -2.6755878260E+00 -2.6711210654E+00
-2.6666691939E+00 -2.6622321373E+00 -2.6578098216E+00 -2.6534021735E+00
-2.6490091203E+00 -2.6446305894E+00 -2.6402665091E+00 -2.6359168079E+00
-2.6315814149E+00 -2.6272602595E+00 -2.6229532719E+00 -2.6186603823E+00
-2.6143815217E+00 -2.6101166214E+00 -2.6058656132E+00 -2.6016284295E+00
-2.5974050027E+00 -2.5931952661E+00 -2.5889991532E+00 -2.5848165979E+00
-2.5806475347E+00 -2.5764918983E+00 -2.5723496241E+00 -2.5682206477E+00
-2.5641049051E+00 -2.5600023329E+00 -2.5559128678E+00 -2.5518364473E+00
-2.5477730089E+00 -2.5437224908E+00 -2.5396848314E+00 -2.5356599697E+00
-2.5316478448E+00 -2.5276483964E+00 -2.5236615645E+00 -2.5196872895E+00
-2.5157255122E+00 -2.5117761738E+00 -2.5078392156E+00 -2.5039145797E+00
-2.5000022082E+00 -2.4961020438E+00 -2.4922140293E+00 -2.4883381082E+00
-2.4844742241E+00 -2.4806223210E+00 -2.4767823433E+00 -2.4729542356E+00
-2.4691379430E+00 -2.4653334109E+00 -2.4615405851E+00 -2.4577594115E+00
-2.4539898366E+00 -2.4502318071E+00 -2.4464852700E+00 -2.4427501726E+00
-2.4390264628E+00 -2.4353140884E+00 -2.4316129978E+00 -2.4279231396E+00
-2.4242444628E+00 -2.4205769166E+00 -2.4169204505E+00 -2.4132750145E+00
-2.4096405588E+00 -2.4060170337E+00 -2.4024043900E+00 -2.3988025788E+00
-2.3952115515E+00 -2.3916312597E+00 -2.3880616553E+00 -2.3845026905E+00
-2.3809543179E+00 -2.3774164902E+00 -2.3738891604E+00 -2.3703722821E+00
-2.3668658086E+00 -2.3633696940E+00 -2.3598838925E+00 -2.3564083583E+00
-2.3529430463E+00 -2.3494879115E+00 -2.3460429090E+00 -2.3426079943E+00
-2.3391831232E+00 -2.3357682517E+00 -2.3323633362E+00 -2.3289683330E+00
-2.3255831990E+00 -2.3222078913E+00 -2.3188423670E+00 -2.3154865838E+00
-2.3121404993E+00 -2.3088040717E+00 -2.3054772591E+00 -2.3021600200E+00
-2.2988523133E+00 -2.2955540978E+00 -2.2922653328E+00 -2.2889859777E+00
-2.2857159921E+00 -2.2824553361E+00 -2.2792039697E+00 -2.2759618532E+00
-2.2727289473E+00 -2.2695052128E+00 -2.2662906107E+00 -2.2630851022E+00
-2.2598886488E+00 -2.2567012122E+00 -2.2535227543E+00 -2.2503532372E+00
-2.2471926233E+00 -2.2440408750E+00 -2.2408979552E+00 -2.2377638267E+00
-2.2346384528E+00 -2.2315217968E+00 -2.2284138223E+00 -2.2253144931E+00
-2.2222237732E+00 -2.2191416266E+00 -2.2160680179E+00 -2.2130029116E+00
-2.2099462724E+00 -2.2068980653E+00 -2.2038582554E+00 -2.2008268082E+00
-2.1978036892E+00 -2.1947888640E+00 -2.1917822987E+00 -2.1887839592E+00
-2.1857938120E+00 -2.1828118234E+00 -2.1798379601E+00 -2.1768721889E+00
-2.1739144770E+00 -2.1709647914E+00 -2.1680230995E+00 -2.1650893689E+00
-2.1621635673E+00 -2.1592456626E+00 -2.1563356229E+00 -2.1534334165E+00
-2.1505390116E+00 -2.1476523770E+00 -2.1447734814E+00 -2.1419022937E+00
-2.1390387829E+00 -2.1361829184E+00 -2.1333346695E+00 -2.1304940059E+00
-2.1276608972E+00 -2.1248353134E+00 -2.1220172245E+00 -2.1192066007E+00
-2.1164034125E+00 -2.1136076303E+00 -2.1108192249E+00 -2.1080381671E+00
-2.1052644278E+00 -2.1024979783E+00 -2.0997387898E+00 -2.0969868338E+00
-2.0942420819E+00 -2.0915045058E+00 -2.0887740774E+00 -2.0860507688E+00
-2.0833345522E+00 -2.0806253998E+00 -2.0779232843E+00 -2.0752281781E+00