<UPF version="2.0.1"><PP_INFO>This pseudopotential file has been produced using the code
ONCVPSP (Optimized Norm-Conservinng Vanderbilt PSeudopotential)
scalar-relativistic version 3.3.0 08/16/2017 by D. R. Hamann
The code is available through a link at URL www.mat-simresearch.com.
Documentation with the package provides a full discription of the
input data below.
While it is not required under the terms of the GNU GPL, it is
suggested that you cite D. R. Hamann, Phys. Rev. B 88, 085117 (2013)
in any publication using these pseudopotentials.<PP_INPUTFILE>
# ATOM AND REFERENCE CONFIGURATION
# atsym z nc nv iexc psfile
Ne 10.00 1 2 -116133 upf
#
# n l f energy (Ha)
1 0 2.00
2 0 2.00
2 1 6.00
#
# PSEUDOPOTENTIAL AND OPTIMIZATION
# lmax
1
#
# l, rc, ep, ncon, nbas, qcut
0 1.30000 -1.33034 4 7 8.00000
1 1.70000 -0.48769 4 7 8.00000
#
# LOCAL POTENTIAL
# lloc, lpopt, rc(5), dvloc0
4 5 1.30000 0.00000
#
# VANDERBILT-KLEINMAN-BYLANDER PROJECTORs
# l, nproj, debl
0 2 1.50000
1 2 1.50000
#
# MODEL CORE CHARGE
# icmod, fcfact, rcfact
0 0.00000 0.00000
#
# LOG DERIVATIVE ANALYSIS
# epsh1, epsh2, depsh
-12.00 12.00 0.02
#
# OUTPUT GRID
# rlmax, drl
4.00 0.01
#
# TEST CONFIGURATIONS
# ncnf
0
# nvcnf
# n l f</PP_INPUTFILE></PP_INFO><PP_HEADER generated="Generated using ONCVPSP code by D. R. Hamann" author="anonymous" date="180301" comment="" element="Ne" pseudo_type="NC" relativistic="scalar" is_ultrasoft="F" is_paw="F" is_coulomb="F" has_so="F" has_wfc="F" has_gipaw="F" core_correction="F" functional="PBESOL" z_valence="    8.00" total_psenergy="  -6.65778618112E+01" rho_cutoff="   7.57000000000E+00" l_max="1" l_local="-1" mesh_size="   758" number_of_wfc="2" number_of_proj="4"/><PP_MESH><PP_R type="real" size=" 758" columns="8">
0.0000 0.0100 0.0200 0.0300 0.0400 0.0500 0.0600 0.0700
0.0800 0.0900 0.1000 0.1100 0.1200 0.1300 0.1400 0.1500
0.1600 0.1700 0.1800 0.1900 0.2000 0.2100 0.2200 0.2300
0.2400 0.2500 0.2600 0.2700 0.2800 0.2900 0.3000 0.3100
0.3200 0.3300 0.3400 0.3500 0.3600 0.3700 0.3800 0.3900
0.4000 0.4100 0.4200 0.4300 0.4400 0.4500 0.4600 0.4700
0.4800 0.4900 0.5000 0.5100 0.5200 0.5300 0.5400 0.5500
0.5600 0.5700 0.5800 0.5900 0.6000 0.6100 0.6200 0.6300
0.6400 0.6500 0.6600 0.6700 0.6800 0.6900 0.7000 0.7100
0.7200 0.7300 0.7400 0.7500 0.7600 0.7700 0.7800 0.7900
0.8000 0.8100 0.8200 0.8300 0.8400 0.8500 0.8600 0.8700
0.8800 0.8900 0.9000 0.9100 0.9200 0.9300 0.9400 0.9500
0.9600 0.9700 0.9800 0.9900 1.0000 1.0100 1.0200 1.0300
1.0400 1.0500 1.0600 1.0700 1.0800 1.0900 1.1000 1.1100
1.1200 1.1300 1.1400 1.1500 1.1600 1.1700 1.1800 1.1900
1.2000 1.2100 1.2200 1.2300 1.2400 1.2500 1.2600 1.2700
1.2800 1.2900 1.3000 1.3100 1.3200 1.3300 1.3400 1.3500
1.3600 1.3700 1.3800 1.3900 1.4000 1.4100 1.4200 1.4300
1.4400 1.4500 1.4600 1.4700 1.4800 1.4900 1.5000 1.5100
1.5200 1.5300 1.5400 1.5500 1.5600 1.5700 1.5800 1.5900
1.6000 1.6100 1.6200 1.6300 1.6400 1.6500 1.6600 1.6700
1.6800 1.6900 1.7000 1.7100 1.7200 1.7300 1.7400 1.7500
1.7600 1.7700 1.7800 1.7900 1.8000 1.8100 1.8200 1.8300
1.8400 1.8500 1.8600 1.8700 1.8800 1.8900 1.9000 1.9100
1.9200 1.9300 1.9400 1.9500 1.9600 1.9700 1.9800 1.9900
2.0000 2.0100 2.0200 2.0300 2.0400 2.0500 2.0600 2.0700
2.0800 2.0900 2.1000 2.1100 2.1200 2.1300 2.1400 2.1500
2.1600 2.1700 2.1800 2.1900 2.2000 2.2100 2.2200 2.2300
2.2400 2.2500 2.2600 2.2700 2.2800 2.2900 2.3000 2.3100
2.3200 2.3300 2.3400 2.3500 2.3600 2.3700 2.3800 2.3900
2.4000 2.4100 2.4200 2.4300 2.4400 2.4500 2.4600 2.4700
2.4800 2.4900 2.5000 2.5100 2.5200 2.5300 2.5400 2.5500
2.5600 2.5700 2.5800 2.5900 2.6000 2.6100 2.6200 2.6300
2.6400 2.6500 2.6600 2.6700 2.6800 2.6900 2.7000 2.7100
2.7200 2.7300 2.7400 2.7500 2.7600 2.7700 2.7800 2.7900
2.8000 2.8100 2.8200 2.8300 2.8400 2.8500 2.8600 2.8700
2.8800 2.8900 2.9000 2.9100 2.9200 2.9300 2.9400 2.9500
2.9600 2.9700 2.9800 2.9900 3.0000 3.0100 3.0200 3.0300
3.0400 3.0500 3.0600 3.0700 3.0800 3.0900 3.1000 3.1100
3.1200 3.1300 3.1400 3.1500 3.1600 3.1700 3.1800 3.1900
3.2000 3.2100 3.2200 3.2300 3.2400 3.2500 3.2600 3.2700
3.2800 3.2900 3.3000 3.3100 3.3200 3.3300 3.3400 3.3500
3.3600 3.3700 3.3800 3.3900 3.4000 3.4100 3.4200 3.4300
3.4400 3.4500 3.4600 3.4700 3.4800 3.4900 3.5000 3.5100
3.5200 3.5300 3.5400 3.5500 3.5600 3.5700 3.5800 3.5900
3.6000 3.6100 3.6200 3.6300 3.6400 3.6500 3.6600 3.6700
3.6800 3.6900 3.7000 3.7100 3.7200 3.7300 3.7400 3.7500
3.7600 3.7700 3.7800 3.7900 3.8000 3.8100 3.8200 3.8300
3.8400 3.8500 3.8600 3.8700 3.8800 3.8900 3.9000 3.9100
3.9200 3.9300 3.9400 3.9500 3.9600 3.9700 3.9800 3.9900
4.0000 4.0100 4.0200 4.0300 4.0400 4.0500 4.0600 4.0700
4.0800 4.0900 4.1000 4.1100 4.1200 4.1300 4.1400 4.1500
4.1600 4.1700 4.1800 4.1900 4.2000 4.2100 4.2200 4.2300
4.2400 4.2500 4.2600 4.2700 4.2800 4.2900 4.3000 4.3100
4.3200 4.3300 4.3400 4.3500 4.3600 4.3700 4.3800 4.3900
4.4000 4.4100 4.4200 4.4300 4.4400 4.4500 4.4600 4.4700
4.4800 4.4900 4.5000 4.5100 4.5200 4.5300 4.5400 4.5500
4.5600 4.5700 4.5800 4.5900 4.6000 4.6100 4.6200 4.6300
4.6400 4.6500 4.6600 4.6700 4.6800 4.6900 4.7000 4.7100
4.7200 4.7300 4.7400 4.7500 4.7600 4.7700 4.7800 4.7900
4.8000 4.8100 4.8200 4.8300 4.8400 4.8500 4.8600 4.8700
4.8800 4.8900 4.9000 4.9100 4.9200 4.9300 4.9400 4.9500
4.9600 4.9700 4.9800 4.9900 5.0000 5.0100 5.0200 5.0300
5.0400 5.0500 5.0600 5.0700 5.0800 5.0900 5.1000 5.1100
5.1200 5.1300 5.1400 5.1500 5.1600 5.1700 5.1800 5.1900
5.2000 5.2100 5.2200 5.2300 5.2400 5.2500 5.2600 5.2700
5.2800 5.2900 5.3000 5.3100 5.3200 5.3300 5.3400 5.3500
5.3600 5.3700 5.3800 5.3900 5.4000 5.4100 5.4200 5.4300
5.4400 5.4500 5.4600 5.4700 5.4800 5.4900 5.5000 5.5100
5.5200 5.5300 5.5400 5.5500 5.5600 5.5700 5.5800 5.5900
5.6000 5.6100 5.6200 5.6300 5.6400 5.6500 5.6600 5.6700
5.6800 5.6900 5.7000 5.7100 5.7200 5.7300 5.7400 5.7500
5.7600 5.7700 5.7800 5.7900 5.8000 5.8100 5.8200 5.8300
5.8400 5.8500 5.8600 5.8700 5.8800 5.8900 5.9000 5.9100
5.9200 5.9300 5.9400 5.9500 5.9600 5.9700 5.9800 5.9900
6.0000 6.0100 6.0200 6.0300 6.0400 6.0500 6.0600 6.0700
6.0800 6.0900 6.1000 6.1100 6.1200 6.1300 6.1400 6.1500
6.1600 6.1700 6.1800 6.1900 6.2000 6.2100 6.2200 6.2300
6.2400 6.2500 6.2600 6.2700 6.2800 6.2900 6.3000 6.3100
6.3200 6.3300 6.3400 6.3500 6.3600 6.3700 6.3800 6.3900
6.4000 6.4100 6.4200 6.4300 6.4400 6.4500 6.4600 6.4700
6.4800 6.4900 6.5000 6.5100 6.5200 6.5300 6.5400 6.5500
6.5600 6.5700 6.5800 6.5900 6.6000 6.6100 6.6200 6.6300
6.6400 6.6500 6.6600 6.6700 6.6800 6.6900 6.7000 6.7100
6.7200 6.7300 6.7400 6.7500 6.7600 6.7700 6.7800 6.7900
6.8000 6.8100 6.8200 6.8300 6.8400 6.8500 6.8600 6.8700
6.8800 6.8900 6.9000 6.9100 6.9200 6.9300 6.9400 6.9500
6.9600 6.9700 6.9800 6.9900 7.0000 7.0100 7.0200 7.0300
7.0400 7.0500 7.0600 7.0700 7.0800 7.0900 7.1000 7.1100
7.1200 7.1300 7.1400 7.1500 7.1600 7.1700 7.1800 7.1900
7.2000 7.2100 7.2200 7.2300 7.2400 7.2500 7.2600 7.2700
7.2800 7.2900 7.3000 7.3100 7.3200 7.3300 7.3400 7.3500
7.3600 7.3700 7.3800 7.3900 7.4000 7.4100 7.4200 7.4300
7.4400 7.4500 7.4600 7.4700 7.4800 7.4900 7.5000 7.5100
7.5200 7.5300 7.5400 7.5500 7.5600 7.5700</PP_R><PP_RAB type="real" size=" 758" columns="8">
0.0100 0.0100 0.0100 0.0100 0.0100 0.0100 0.0100 0.0100
0.0100 0.0100 0.0100 0.0100 0.0100 0.0100 0.0100 0.0100
0.0100 0.0100 0.0100 0.0100 0.0100 0.0100 0.0100 0.0100
0.0100 0.0100 0.0100 0.0100 0.0100 0.0100 0.0100 0.0100
0.0100 0.0100 0.0100 0.0100 0.0100 0.0100 0.0100 0.0100
0.0100 0.0100 0.0100 0.0100 0.0100 0.0100 0.0100 0.0100
0.0100 0.0100 0.0100 0.0100 0.0100 0.0100 0.0100 0.0100
0.0100 0.0100 0.0100 0.0100 0.0100 0.0100 0.0100 0.0100
0.0100 0.0100 0.0100 0.0100 0.0100 0.0100 0.0100 0.0100
0.0100 0.0100 0.0100 0.0100 0.0100 0.0100 0.0100 0.0100
0.0100 0.0100 0.0100 0.0100 0.0100 0.0100 0.0100 0.0100
0.0100 0.0100 0.0100 0.0100 0.0100 0.0100 0.0100 0.0100
0.0100 0.0100 0.0100 0.0100 0.0100 0.0100 0.0100 0.0100
0.0100 0.0100 0.0100 0.0100 0.0100 0.0100 0.0100 0.0100
0.0100 0.0100 0.0100 0.0100 0.0100 0.0100 0.0100 0.0100
0.0100 0.0100 0.0100 0.0100 0.0100 0.0100 0.0100 0.0100
0.0100 0.0100 0.0100 0.0100 0.0100 0.0100 0.0100 0.0100
0.0100 0.0100 0.0100 0.0100 0.0100 0.0100 0.0100 0.0100
0.0100 0.0100 0.0100 0.0100 0.0100 0.0100 0.0100 0.0100
0.0100 0.0100 0.0100 0.0100 0.0100 0.0100 0.0100 0.0100
0.0100 0.0100 0.0100 0.0100 0.0100 0.0100 0.0100 0.0100
0.0100 0.0100 0.0100 0.0100 0.0100 0.0100 0.0100 0.0100
0.0100 0.0100 0.0100 0.0100 0.0100 0.0100 0.0100 0.0100
0.0100 0.0100 0.0100 0.0100 0.0100 0.0100 0.0100 0.0100
0.0100 0.0100 0.0100 0.0100 0.0100 0.0100 0.0100 0.0100
0.0100 0.0100 0.0100 0.0100 0.0100 0.0100 0.0100 0.0100
0.0100 0.0100 0.0100 0.0100 0.0100 0.0100 0.0100 0.0100
0.0100 0.0100 0.0100 0.0100 0.0100 0.0100 0.0100 0.0100
0.0100 0.0100 0.0100 0.0100 0.0100 0.0100 0.0100 0.0100
0.0100 0.0100 0.0100 0.0100 0.0100 0.0100 0.0100 0.0100
0.0100 0.0100 0.0100 0.0100 0.0100 0.0100 0.0100 0.0100
0.0100 0.0100 0.0100 0.0100 0.0100 0.0100 0.0100 0.0100
0.0100 0.0100 0.0100 0.0100 0.0100 0.0100 0.0100 0.0100
0.0100 0.0100 0.0100 0.0100 0.0100 0.0100 0.0100 0.0100
0.0100 0.0100 0.0100 0.0100 0.0100 0.0100 0.0100 0.0100
0.0100 0.0100 0.0100 0.0100 0.0100 0.0100 0.0100 0.0100
0.0100 0.0100 0.0100 0.0100 0.0100 0.0100 0.0100 0.0100
0.0100 0.0100 0.0100 0.0100 0.0100 0.0100 0.0100 0.0100
0.0100 0.0100 0.0100 0.0100 0.0100 0.0100 0.0100 0.0100
0.0100 0.0100 0.0100 0.0100 0.0100 0.0100 0.0100 0.0100
0.0100 0.0100 0.0100 0.0100 0.0100 0.0100 0.0100 0.0100
0.0100 0.0100 0.0100 0.0100 0.0100 0.0100 0.0100 0.0100
0.0100 0.0100 0.0100 0.0100 0.0100 0.0100 0.0100 0.0100
0.0100 0.0100 0.0100 0.0100 0.0100 0.0100 0.0100 0.0100
0.0100 0.0100 0.0100 0.0100 0.0100 0.0100 0.0100 0.0100
0.0100 0.0100 0.0100 0.0100 0.0100 0.0100 0.0100 0.0100
0.0100 0.0100 0.0100 0.0100 0.0100 0.0100 0.0100 0.0100
0.0100 0.0100 0.0100 0.0100 0.0100 0.0100 0.0100 0.0100
0.0100 0.0100 0.0100 0.0100 0.0100 0.0100 0.0100 0.0100
0.0100 0.0100 0.0100 0.0100 0.0100 0.0100 0.0100 0.0100
0.0100 0.0100 0.0100 0.0100 0.0100 0.0100 0.0100 0.0100
0.0100 0.0100 0.0100 0.0100 0.0100 0.0100 0.0100 0.0100
0.0100 0.0100 0.0100 0.0100 0.0100 0.0100 0.0100 0.0100
0.0100 0.0100 0.0100 0.0100 0.0100 0.0100 0.0100 0.0100
0.0100 0.0100 0.0100 0.0100 0.0100 0.0100 0.0100 0.0100
0.0100 0.0100 0.0100 0.0100 0.0100 0.0100 0.0100 0.0100
0.0100 0.0100 0.0100 0.0100 0.0100 0.0100 0.0100 0.0100
0.0100 0.0100 0.0100 0.0100 0.0100 0.0100 0.0100 0.0100
0.0100 0.0100 0.0100 0.0100 0.0100 0.0100 0.0100 0.0100
0.0100 0.0100 0.0100 0.0100 0.0100 0.0100 0.0100 0.0100
0.0100 0.0100 0.0100 0.0100 0.0100 0.0100 0.0100 0.0100
0.0100 0.0100 0.0100 0.0100 0.0100 0.0100 0.0100 0.0100
0.0100 0.0100 0.0100 0.0100 0.0100 0.0100 0.0100 0.0100
0.0100 0.0100 0.0100 0.0100 0.0100 0.0100 0.0100 0.0100
0.0100 0.0100 0.0100 0.0100 0.0100 0.0100 0.0100 0.0100
0.0100 0.0100 0.0100 0.0100 0.0100 0.0100 0.0100 0.0100
0.0100 0.0100 0.0100 0.0100 0.0100 0.0100 0.0100 0.0100
0.0100 0.0100 0.0100 0.0100 0.0100 0.0100 0.0100 0.0100
0.0100 0.0100 0.0100 0.0100 0.0100 0.0100 0.0100 0.0100
0.0100 0.0100 0.0100 0.0100 0.0100 0.0100 0.0100 0.0100
0.0100 0.0100 0.0100 0.0100 0.0100 0.0100 0.0100 0.0100
0.0100 0.0100 0.0100 0.0100 0.0100 0.0100 0.0100 0.0100
0.0100 0.0100 0.0100 0.0100 0.0100 0.0100 0.0100 0.0100
0.0100 0.0100 0.0100 0.0100 0.0100 0.0100 0.0100 0.0100
0.0100 0.0100 0.0100 0.0100 0.0100 0.0100 0.0100 0.0100
0.0100 0.0100 0.0100 0.0100 0.0100 0.0100 0.0100 0.0100
0.0100 0.0100 0.0100 0.0100 0.0100 0.0100 0.0100 0.0100
0.0100 0.0100 0.0100 0.0100 0.0100 0.0100 0.0100 0.0100
0.0100 0.0100 0.0100 0.0100 0.0100 0.0100 0.0100 0.0100
0.0100 0.0100 0.0100 0.0100 0.0100 0.0100 0.0100 0.0100
0.0100 0.0100 0.0100 0.0100 0.0100 0.0100 0.0100 0.0100
0.0100 0.0100 0.0100 0.0100 0.0100 0.0100 0.0100 0.0100
0.0100 0.0100 0.0100 0.0100 0.0100 0.0100 0.0100 0.0100
0.0100 0.0100 0.0100 0.0100 0.0100 0.0100 0.0100 0.0100
0.0100 0.0100 0.0100 0.0100 0.0100 0.0100 0.0100 0.0100
0.0100 0.0100 0.0100 0.0100 0.0100 0.0100 0.0100 0.0100
0.0100 0.0100 0.0100 0.0100 0.0100 0.0100 0.0100 0.0100
0.0100 0.0100 0.0100 0.0100 0.0100 0.0100 0.0100 0.0100
0.0100 0.0100 0.0100 0.0100 0.0100 0.0100 0.0100 0.0100
0.0100 0.0100 0.0100 0.0100 0.0100 0.0100 0.0100 0.0100
0.0100 0.0100 0.0100 0.0100 0.0100 0.0100 0.0100 0.0100
0.0100 0.0100 0.0100 0.0100 0.0100 0.0100 0.0100 0.0100
0.0100 0.0100 0.0100 0.0100 0.0100 0.0100 0.0100 0.0100
0.0100 0.0100 0.0100 0.0100 0.0100 0.0100 0.0100 0.0100
0.0100 0.0100 0.0100 0.0100 0.0100 0.0100</PP_RAB></PP_MESH><PP_LOCAL type="real" size=" 758" columns="4">
-2.6754950133E+01 -2.6760076297E+01 -2.6773609638E+01 -2.6792609733E+01
-2.6812871510E+01 -2.6830208711E+01 -2.6841243806E+01 -2.6843763790E+01
-2.6836701333E+01 -2.6819901226E+01 -2.6793822669E+01 -2.6759270887E+01
-2.6717195874E+01 -2.6668560692E+01 -2.6614265978E+01 -2.6555113771E+01
-2.6491796025E+01 -2.6424897048E+01 -2.6354902745E+01 -2.6282212394E+01
-2.6207150587E+01 -2.6129978165E+01 -2.6050901727E+01 -2.5970081630E+01
-2.5887638630E+01 -2.5803659349E+01 -2.5718200799E+01 -2.5631294162E+01
-2.5542948014E+01 -2.5453151148E+01 -2.5361875132E+01 -2.5269076709E+01
-2.5174700126E+01 -2.5078679463E+01 -2.4980940998E+01 -2.4881405634E+01
-2.4779991385E+01 -2.4676615898E+01 -2.4571198976E+01 -2.4463665039E+01
-2.4353945455E+01 -2.4241980686E+01 -2.4127722148E+01 -2.4011133760E+01
-2.3892193097E+01 -2.3770892142E+01 -2.3647237611E+01 -2.3521250867E+01
-2.3392967443E+01 -2.3262436241E+01 -2.3129718432E+01 -2.2994886166E+01
-2.2858021123E+01 -2.2719212999E+01 -2.2578557984E+01 -2.2436157283E+01
-2.2292115721E+01 -2.2146540483E+01 -2.1999539980E+01 -2.1851222890E+01
-2.1701697340E+01 -2.1551070247E+01 -2.1399446810E+01 -2.1246930112E+01
-2.1093620853E+01 -2.0939617168E+01 -2.0785014520E+01 -2.0629905668E+01
-2.0474380666E+01 -2.0318526908E+01 -2.0162429192E+01 -2.0006169795E+01
-1.9849828556E+01 -1.9693482966E+01 -1.9537208243E+01 -1.9381077407E+01
-1.9225161348E+01 -1.9069528881E+01 -1.8914246788E+01 -1.8759379858E+01
-1.8604990911E+01 -1.8451140814E+01 -1.8297888491E+01 -1.8145290924E+01
-1.7993403155E+01 -1.7842278271E+01 -1.7691967398E+01 -1.7542519683E+01
-1.7393982284E+01 -1.7246400354E+01 -1.7099817023E+01 -1.6954273388E+01
-1.6809808501E+01 -1.6666459362E+01 -1.6524260912E+01 -1.6383246034E+01
-1.6243445554E+01 -1.6104888252E+01 -1.5967600871E+01 -1.5831608140E+01
-1.5696932789E+01 -1.5563595581E+01 -1.5431615347E+01 -1.5301009014E+01
-1.5171791652E+01 -1.5043976516E+01 -1.4917575090E+01 -1.4792597137E+01
-1.4669050748E+01 -1.4546942387E+01 -1.4426276945E+01 -1.4307057782E+01
-1.4189286771E+01 -1.4072964337E+01 -1.3958089492E+01 -1.3844659865E+01
-1.3732671722E+01 -1.3622119983E+01 -1.3512998233E+01 -1.3405298722E+01
-1.3299012360E+01 -1.3194128707E+01 -1.3090635950E+01 -1.2988520883E+01
-1.2887768873E+01 -1.2788363837E+01 -1.2690288192E+01 -1.2593522838E+01
-1.2498046918E+01 -1.2403837926E+01 -1.2310871957E+01 -1.2219125443E+01
-1.2128576126E+01 -1.2039202812E+01 -1.1950983710E+01 -1.1863895010E+01
-1.1777912821E+01 -1.1693014177E+01 -1.1609178162E+01 -1.1526385134E+01
-1.1444616361E+01 -1.1363854304E+01 -1.1284082558E+01 -1.1205285795E+01
-1.1127449756E+01 -1.1050561219E+01 -1.0974607961E+01 -1.0899578728E+01
-1.0825463188E+01 -1.0752251880E+01 -1.0679936161E+01 -1.0608508135E+01
-1.0537960586E+01 -1.0468286891E+01 -1.0399480935E+01 -1.0331537009E+01
-1.0264449704E+01 -1.0198213799E+01 -1.0132824141E+01 -1.0068275517E+01
-1.0004562535E+01 -9.9416795093E+00 -9.8796202757E+00 -9.8183781003E+00
-9.7579455592E+00 -9.6983144366E+00 -9.6394763404E+00 -9.5814221049E+00
-9.5241411253E+00 -9.4676199658E+00 -9.4118366830E+00 -9.3567607481E+00
-9.3023585292E+00 -9.2485968630E+00 -9.1954508650E+00 -9.1429074893E+00
-9.0909580135E+00 -9.0395945839E+00 -8.9888096084E+00 -8.9385927969E+00
-8.8889335013E+00 -8.8398227830E+00 -8.7912518198E+00 -8.7432117161E+00
-8.6956937919E+00 -8.6486895785E+00 -8.6021907933E+00 -8.5561893281E+00
-8.5106772462E+00 -8.4656467794E+00 -8.4210903230E+00 -8.3770004317E+00
-8.3333698152E+00 -8.2901913342E+00 -8.2474579968E+00 -8.2051629545E+00
-8.1632994984E+00 -8.1218610560E+00 -8.0808411876E+00 -8.0402335829E+00
-8.0000320578E+00 -7.9602305512E+00 -7.9208231222E+00 -7.8818039468E+00
-7.8431673153E+00 -7.8049076295E+00 -7.7670193997E+00 -7.7294972424E+00
-7.6923358777E+00 -7.6555301266E+00 -7.6190749090E+00 -7.5829652408E+00
-7.5471962321E+00 -7.5117630850E+00 -7.4766610909E+00 -7.4418856292E+00
-7.4074321646E+00 -7.3732962455E+00 -7.3394735021E+00 -7.3059596442E+00
-7.2727504598E+00 -7.2398418129E+00 -7.2072296424E+00 -7.1749099597E+00
-7.1428788476E+00 -7.1111324585E+00 -7.0796670128E+00 -7.0484787978E+00
-7.0175641655E+00 -6.9869195321E+00 -6.9565413759E+00 -6.9264262359E+00
-6.8965707114E+00 -6.8669714595E+00 -6.8376251948E+00 -6.8085286876E+00
-6.7796787632E+00 -6.7510723002E+00 -6.7227062299E+00 -6.6945775347E+00
-6.6666832476E+00 -6.6390204506E+00 -6.6115862741E+00 -6.5843778956E+00
-6.5573925389E+00 -6.5306274732E+00 -6.5040800120E+00 -6.4777475124E+00
-6.4516273742E+00 -6.4257170387E+00 -6.4000139883E+00 -6.3745157456E+00
-6.3492198724E+00 -6.3241239692E+00 -6.2992256740E+00 -6.2745226621E+00
-6.2500126450E+00 -6.2256933699E+00 -6.2015626190E+00 -6.1776182085E+00
-6.1538579883E+00 -6.1302798414E+00 -6.1068816830E+00 -6.0836614600E+00
-6.0606171503E+00 -6.0377467626E+00 -6.0150483353E+00 -5.9925199362E+00
-5.9701596622E+00 -5.9479656381E+00 -5.9259360168E+00 -5.9040689783E+00
-5.8823627294E+00 -5.8608155032E+00 -5.8394255586E+00 -5.8181911797E+00
-5.7971106757E+00 -5.7761823799E+00 -5.7554046499E+00 -5.7347758667E+00
-5.7142944343E+00 -5.6939587796E+00 -5.6737673519E+00 -5.6537186221E+00
-5.6338110828E+00 -5.6140432479E+00 -5.5944136518E+00 -5.5749208497E+00
-5.5555634164E+00 -5.5363399467E+00 -5.5172490549E+00 -5.4982893741E+00
-5.4794595561E+00 -5.4607582715E+00 -5.4421842084E+00 -5.4237360732E+00
-5.4054125895E+00 -5.3872124981E+00 -5.3691345569E+00 -5.3511775402E+00
-5.3333402388E+00 -5.3156214593E+00 -5.2980200245E+00 -5.2805347725E+00
-5.2631645567E+00 -5.2459082456E+00 -5.2287647223E+00 -5.2117328848E+00
-5.1948116451E+00 -5.1779999295E+00 -5.1612966779E+00 -5.1447008441E+00
-5.1282113952E+00 -5.1118273116E+00 -5.0955475863E+00 -5.0793712257E+00
-5.0632972482E+00 -5.0473246850E+00 -5.0314525793E+00 -5.0156799863E+00
-5.0000059731E+00 -4.9844296182E+00 -4.9689500119E+00 -4.9535662554E+00
-4.9382774613E+00 -4.9230827529E+00 -4.9079812645E+00 -4.8929721407E+00
-4.8780545366E+00 -4.8632276179E+00 -4.8484905599E+00 -4.8338425483E+00
-4.8192827783E+00 -4.8048104550E+00 -4.7904247929E+00 -4.7761250159E+00
-4.7619103572E+00 -4.7477800589E+00 -4.7337333723E+00 -4.7197695575E+00
-4.7058878831E+00 -4.6920876266E+00 -4.6783680737E+00 -4.6647285185E+00
-4.6511682634E+00 -4.6376866187E+00 -4.6242829029E+00 -4.6109564421E+00
-4.5977065705E+00 -4.5845326295E+00 -4.5714339684E+00 -4.5584099437E+00
-4.5454599193E+00 -4.5325832662E+00 -4.5197793627E+00 -4.5070475940E+00
-4.4943873521E+00 -4.4817980361E+00 -4.4692790514E+00 -4.4568298104E+00
-4.4444497319E+00 -4.4321382410E+00 -4.4198947695E+00 -4.4077187550E+00
-4.3956096417E+00 -4.3835668797E+00 -4.3715899250E+00 -4.3596782398E+00
-4.3478312919E+00 -4.3360485550E+00 -4.3243295085E+00 -4.3126736373E+00
-4.3010804320E+00 -4.2895493885E+00 -4.2780800082E+00 -4.2666717978E+00
-4.2553242693E+00 -4.2440369396E+00 -4.2328093311E+00 -4.2216409711E+00
-4.2105313917E+00 -4.1994801302E+00 -4.1884867285E+00 -4.1775507334E+00
-4.1666716964E+00 -4.1558491737E+00 -4.1450827260E+00 -4.1343719187E+00
-4.1237163216E+00 -4.1131155088E+00 -4.1025690589E+00 -4.0920765549E+00
-4.0816375839E+00 -4.0712517371E+00 -4.0609186102E+00 -4.0506378027E+00
-4.0404089183E+00 -4.0302315646E+00 -4.0201053531E+00 -4.0100298993E+00
-4.0000048226E+00 -3.9900297461E+00 -3.9801042966E+00 -3.9702281047E+00
-3.9604008046E+00 -3.9506220342E+00 -3.9408914349E+00 -3.9312086516E+00
-3.9215733326E+00 -3.9119851300E+00 -3.9024436988E+00 -3.8929486978E+00
-3.8834997888E+00 -3.8740966370E+00 -3.8647389109E+00 -3.8554262820E+00
-3.8461584252E+00 -3.8369350184E+00 -3.8277557425E+00 -3.8186202816E+00
-3.8095283226E+00 -3.8004795557E+00 -3.7914736738E+00 -3.7825103727E+00
-3.7735893511E+00 -3.7647103106E+00 -3.7558729555E+00 -3.7470769931E+00
-3.7383221331E+00 -3.7296080882E+00 -3.7209345735E+00 -3.7123013070E+00
-3.7037080091E+00 -3.6951544030E+00 -3.6866402143E+00 -3.6781651712E+00
-3.6697290042E+00 -3.6613314465E+00 -3.6529722337E+00 -3.6446511038E+00
-3.6363677970E+00 -3.6281220561E+00 -3.6199136261E+00 -3.6117422543E+00
-3.6036076904E+00 -3.5955096862E+00 -3.5874479958E+00 -3.5794223755E+00
-3.5714325838E+00 -3.5634783812E+00 -3.5555595305E+00 -3.5476757965E+00
-3.5398269462E+00 -3.5320127486E+00 -3.5242329746E+00 -3.5164873973E+00
-3.5087757918E+00 -3.5010979350E+00 -3.4934536059E+00 -3.4858425853E+00
-3.4782646560E+00 -3.4707196027E+00 -3.4632072118E+00 -3.4557272719E+00
-3.4482795729E+00 -3.4408639070E+00 -3.4334800679E+00 -3.4261278512E+00
-3.4188070541E+00 -3.4115174757E+00 -3.4042589168E+00 -3.3970311796E+00
-3.3898340685E+00 -3.3826673890E+00 -3.3755309486E+00 -3.3684245563E+00
-3.3613480228E+00 -3.3543011602E+00 -3.3472837824E+00 -3.3402957046E+00
-3.3333367437E+00 -3.3264067183E+00 -3.3195054480E+00 -3.3126327544E+00
-3.3057884603E+00 -3.2989723901E+00 -3.2921843696E+00 -3.2854242258E+00
-3.2786917876E+00 -3.2719868848E+00 -3.2653093490E+00 -3.2586590129E+00
-3.2520357106E+00 -3.2454392777E+00 -3.2388695510E+00 -3.2323263686E+00
-3.2258095700E+00 -3.2193189959E+00 -3.2128544883E+00 -3.2064158906E+00
-3.2000030473E+00 -3.1936158041E+00 -3.1872540081E+00 -3.1809175075E+00
-3.1746061517E+00 -3.1683197914E+00 -3.1620582784E+00 -3.1558214656E+00
-3.1496092071E+00 -3.1434213584E+00 -3.1372577757E+00 -3.1311183166E+00
-3.1250028397E+00 -3.1189112049E+00 -3.1128432729E+00 -3.1067989058E+00
-3.1007779664E+00 -3.0947803188E+00 -3.0888058282E+00 -3.0828543607E+00
-3.0769257834E+00 -3.0710199646E+00 -3.0651367735E+00 -3.0592760803E+00
-3.0534377561E+00 -3.0476216731E+00 -3.0418277046E+00 -3.0360557245E+00
-3.0303056080E+00 -3.0245772312E+00 -3.0188704708E+00 -3.0131852048E+00
-3.0075213121E+00 -3.0018786722E+00 -2.9962571658E+00 -2.9906566744E+00
-2.9850770804E+00 -2.9795182671E+00 -2.9739801184E+00 -2.9684625195E+00
-2.9629653562E+00 -2.9574885151E+00 -2.9520318838E+00 -2.9465953506E+00
-2.9411788047E+00 -2.9357821360E+00 -2.9304052354E+00 -2.9250479944E+00
-2.9197103054E+00 -2.9143920615E+00 -2.9090931567E+00 -2.9038134858E+00
-2.8985529441E+00 -2.8933114278E+00 -2.8880888341E+00 -2.8828850605E+00
-2.8777000056E+00 -2.8725335685E+00 -2.8673856491E+00 -2.8622561480E+00
-2.8571449666E+00 -2.8520520069E+00 -2.8469771717E+00 -2.8419203643E+00
-2.8368814889E+00 -2.8318604503E+00 -2.8268571538E+00 -2.8218715057E+00
-2.8169034127E+00 -2.8119527823E+00 -2.8070195225E+00 -2.8021035422E+00
-2.7972047506E+00 -2.7923230578E+00 -2.7874583744E+00 -2.7826106117E+00
-2.7777796815E+00 -2.7729654963E+00 -2.7681679692E+00 -2.7633870140E+00
-2.7586225448E+00 -2.7538744765E+00 -2.7491427247E+00 -2.7444272054E+00
-2.7397278351E+00 -2.7350445310E+00 -2.7303772110E+00 -2.7257257932E+00
-2.7210901967E+00 -2.7164703407E+00 -2.7118661453E+00 -2.7072775310E+00
-2.7027044188E+00 -2.6981467302E+00 -2.6936043875E+00 -2.6890773131E+00
-2.6845654303E+00 -2.6800686627E+00 -2.6755869345E+00 -2.6711201704E+00
-2.6666682955E+00 -2.6622312355E+00 -2.6578089166E+00 -2.6534012655E+00
-2.6490082092E+00 -2.6446296755E+00 -2.6402655925E+00 -2.6359158886E+00
-2.6315804930E+00 -2.6272593352E+00 -2.6229523452E+00 -2.6186594534E+00
-2.6143805906E+00 -2.6101156883E+00 -2.6058646782E+00 -2.6016274925E+00
-2.5974040640E+00 -2.5931943257E+00 -2.5889982112E+00 -2.5848156544E+00
-2.5806465898E+00 -2.5764909521E+00 -2.5723486767E+00 -2.5682196991E+00
-2.5641039555E+00 -2.5600013822E+00 -2.5559119163E+00 -2.5518354949E+00
-2.5477720558E+00 -2.5437215370E+00 -2.5396838771E+00 -2.5356590148E+00
-2.5316468895E+00 -2.5276474407E+00 -2.5236606085E+00 -2.5196863333E+00
-2.5157245559E+00 -2.5117752173E+00 -2.5078382592E+00 -2.5039136233E+00
-2.5000012519E+00 -2.4961010876E+00 -2.4922130735E+00 -2.4883371526E+00
-2.4844732689E+00 -2.4806213662E+00 -2.4767813889E+00 -2.4729532818E+00
-2.4691369898E+00 -2.4653324584E+00 -2.4615396333E+00 -2.4577584605E+00
-2.4539888864E+00 -2.4502308577E+00 -2.4464843215E+00 -2.4427492251E+00
-2.4390255163E+00 -2.4353131430E+00 -2.4316120535E+00 -2.4279221964E+00
-2.4242435208E+00 -2.4205759759E+00 -2.4169195111E+00 -2.4132740765E+00
-2.4096396221E+00 -2.4060160984E+00 -2.4024034562E+00 -2.3988016465E+00
-2.3952106207E+00 -2.3916303305E+00 -2.3880607277E+00 -2.3845017646E+00
-2.3809533936E+00 -2.3774155676E+00 -2.3738882396E+00 -2.3703713630E+00
-2.3668648914E+00 -2.3633687787E+00 -2.3598829790E+00 -2.3564074468E+00
-2.3529421367E+00 -2.3494870038E+00 -2.3460420033E+00 -2.3426070906E+00
-2.3391822216E+00 -2.3357673522E+00 -2.3323624387E+00 -2.3289674377E+00
-2.3255823059E+00 -2.3222070003E+00 -2.3188414782E+00 -2.3154856972E+00
-2.3121396150E+00 -2.3088031896E+00 -2.3054763792E+00 -2.3021591425E+00
-2.2988514381E+00 -2.2955532249E+00 -2.2922644623E+00 -2.2889851095E+00
-2.2857151264E+00 -2.2824544728E+00 -2.2792031088E+00 -2.2759609948E+00
-2.2727280913E+00 -2.2695043593E+00 -2.2662897596E+00 -2.2630842536E+00
-2.2598878028E+00 -2.2567003687E+00 -2.2535219133E+00 -2.2503523988E+00
-2.2471917874E+00 -2.2440400417E+00 -2.2408971245E+00 -2.2377629986E+00
-2.2346376273E+00 -2.2315209739E+00 -2.2284130021E+00 -2.2253136755E+00
-2.2222229581E+00 -2.2191408143E+00 -2.2160672082E+00 -2.2130021045E+00
-2.2099454680E+00 -2.2068972636E+00 -2.2038574564E+00 -2.2008260119E+00
-2.1978028956E+00 -2.1947880731E+00 -2.1917815104E+00 -2.1887831737E+00
-2.1857930291E+00 -2.1828110432E+00 -2.1798371827E+00 -2.1768714143E+00
-2.1739137050E+00 -2.1709640221E+00 -2.1680223330E+00 -2.1650886052E+00
-2.1621628063E+00 -2.1592449044E+00 -2.1563348674E+00 -2.1534326637E+00
-2.1505382616E+00 -2.1476516298E+00 -2.1447727369E+00 -2.1419015519E+00
-2.1390380439E+00 -2.1361821821E+00 -2.1333339360E+00 -2.1304932751E+00
-2.1276601691E+00 -2.1248345880E+00 -2.1220165019E+00 -2.1192058809E+00
-2.1164026954E+00 -2.1136069160E+00</PP_LOCAL><PP_NONLOCAL><PP_BETA.1 type="real" size=" 758" columns="4" index="1" angular_momentum="0" cutoff_radius_index=" 176" cutoff_radius="    1.7500000000E+00">
1.2880878586E-09 7.6697866094E-02 1.5328334179E-01 2.2964277109E-01
3.0565999160E-01 3.8121514309E-01 4.5618354917E-01 5.3043469498E-01
6.0383132245E-01 6.7622866311E-01 7.4747382659E-01 8.1740536080E-01
8.8585299755E-01 9.5263759471E-01 1.0175712834E+00 1.0804578260E+00
1.1410931873E+00 1.1992663190E+00 1.2547601542E+00 1.3073528052E+00
1.3568189556E+00 1.4029314351E+00 1.4454629611E+00 1.4841880308E+00
1.5188849430E+00 1.5493379283E+00 1.5753393629E+00 1.5966920420E+00
1.6132114836E+00 1.6247282366E+00 1.6310901639E+00 1.6321646705E+00
1.6278408497E+00 1.6180315159E+00 1.6026750984E+00 1.5817373681E+00
1.5552129713E+00 1.5231267476E+00 1.4855348093E+00 1.4425253636E+00
1.3942192594E+00 1.3407702466E+00 1.2823649349E+00 1.2192224455E+00
1.1515937510E+00 1.0797607018E+00 1.0040347431E+00 9.2475532594E-01
8.4228802493E-01 7.5702237283E-01 6.6936942997E-01 5.7975910745E-01
4.8863726661E-01 3.9646262019E-01 3.0370346301E-01 2.1083426218E-01
1.1833213910E-01 2.6673276625E-02 -6.3670713445E-02 -1.5223642696E-01
-2.3857227181E-01 -3.2224200382E-01 -4.0282815818E-01 -4.7993534126E-01
-5.5319334862E-01 -6.2226007679E-01 -6.8682419818E-01 -7.4660757077E-01
-8.0136735677E-01 -8.5089782756E-01 -8.9503183515E-01 -9.3364193412E-01
-9.6664114127E-01 -9.9398332445E-01 -1.0156632156E+00 -1.0317160473E+00
-1.0422168158E+00 -1.0472791783E+00 -1.0470539951E+00 -1.0417275320E+00
-1.0315193419E+00 -1.0166798475E+00 -9.9748765104E-01 -9.7424659949E-01
-9.4728263662E-01 -9.1694047548E-01 -8.8358012703E-01 -8.4757332208E-01
-8.0929986491E-01 -7.6914395781E-01 -7.2749053583E-01 -6.8472165107E-01
-6.4121294513E-01 -5.9733024741E-01 -5.5342633529E-01 -5.0983789043E-01
-4.6688268318E-01 -4.2485701429E-01 -3.8403344017E-01 -3.4465880468E-01
-3.0695259665E-01 -2.7110564876E-01 -2.3727918917E-01 -2.0560425323E-01
-1.7618145846E-01 -1.4908114146E-01 -1.2434385139E-01 -1.0198119026E-01
-8.1976986099E-02 -6.4288781425E-02 -4.8849615394E-02 -3.5570074500E-02
-2.4340583624E-02 -1.5033906134E-02 -7.5078196354E-03 -1.6079311685E-03
2.8294055587E-03 5.9741097305E-03 7.9993694649E-03 9.0786545112E-03
9.3827853143E-03 9.0770979174E-03 8.3187431697E-03 7.2541567737E-03
6.0167349072E-03 4.7247487964E-03 3.4795271789E-03 2.3645338765E-03
1.4413934231E-03 7.4729850541E-04 3.3789486162E-04 1.6686057747E-04
5.9338515563E-05 -6.4402635421E-06 -5.9243822223E-06 2.5872567727E-06
-1.5164750619E-08 -3.7134210043E-07 0 0
0 0 0 0
0 0 0 0
0 0 0 0
0 0 0 0
0 0 0 0
0 0 0 0
0 0 0 0
0 0 0 0
0 0 0 0
0. 0. 0. 0.
0. 0. 0. 0.
0. 0. 0. 0.
0. 0. 0. 0.
0. 0. 0. 0.
0. 0. 0. 0.
0. 0. 0. 0.
0. 0. 0. 0.
0. 0. 0. 0.
0. 0. 0. 0.
0. 0. 0. 0.
0. 0. 0. 0.
0. 0. 0. 0.
0. 0. 0. 0.
0. 0. 0. 0.
0. 0. 0. 0.
0. 0. 0. 0.
0. 0. 0. 0.
0. 0. 0. 0.
0. 0. 0. 0.
0. 0. 0. 0.
0. 0. 0. 0.
0. 0. 0. 0.
0. 0. 0. 0.
0. 0. 0. 0.
0. 0. 0. 0.
0. 0. 0. 0.
0. 0. 0. 0.
0. 0. 0. 0.
0. 0. 0. 0.
0. 0. 0. 0.
0. 0. 0. 0.
0. 0. 0. 0.
0. 0. 0. 0.
0. 0. 0. 0.
0. 0. 0. 0.
0. 0. 0. 0.
0. 0. 0. 0.
0. 0. 0. 0.
0. 0. 0. 0.
0. 0. 0. 0.
0. 0. 0. 0.
0. 0. 0. 0.
0. 0. 0. 0.
0. 0. 0. 0.
0. 0. 0. 0.
0. 0. 0. 0.
0. 0. 0. 0.
0. 0. 0. 0.
0. 0. 0. 0.
0. 0. 0. 0.
0. 0. 0. 0.
0. 0. 0. 0.
0. 0. 0. 0.
0. 0. 0. 0.
0. 0. 0. 0.
0. 0. 0. 0.
0. 0. 0. 0.
0. 0. 0. 0.
0. 0. 0. 0.
0. 0. 0. 0.
0. 0. 0. 0.
0. 0. 0. 0.
0. 0. 0. 0.
0. 0. 0. 0.
0. 0. 0. 0.
0. 0. 0. 0.
0. 0. 0. 0.
0. 0. 0. 0.
0. 0. 0. 0.
0. 0. 0. 0.
0. 0. 0. 0.
0. 0. 0. 0.
0. 0. 0. 0.
0. 0. 0. 0.
0. 0. 0. 0.
0. 0. 0. 0.
0. 0. 0. 0.
0. 0. 0. 0.
0. 0. 0. 0.
0. 0. 0. 0.
0. 0. 0. 0.
0. 0. 0. 0.
0. 0. 0. 0.
0. 0. 0. 0.
0. 0. 0. 0.
0. 0. 0. 0.
0. 0. 0. 0.
0. 0. 0. 0.
0. 0. 0. 0.
0. 0. 0. 0.
0. 0. 0. 0.
0. 0. 0. 0.
0. 0. 0. 0.
0. 0. 0. 0.
0. 0. 0. 0.
0. 0. 0. 0.
0. 0. 0. 0.
0. 0. 0. 0.
0. 0. 0. 0.
0. 0. 0. 0.
0. 0. 0. 0.