<UPF version="2.0.1"><PP_INFO>This pseudopotential file has been produced using the code
ONCVPSP (Optimized Norm-Conservinng Vanderbilt PSeudopotential)
scalar-relativistic version 3.3.0 08/16/2017 by D. R. Hamann
The code is available through a link at URL www.mat-simresearch.com.
Documentation with the package provides a full discription of the
input data below.
While it is not required under the terms of the GNU GPL, it is
suggested that you cite D. R. Hamann, Phys. Rev. B 88, 085117 (2013)
in any publication using these pseudopotentials.<PP_INPUTFILE>
# ATOM AND REFERENCE CONFIGURATION
# atsym z nc nv iexc psfile
O 8.00 1 2 -116133 upf
#
# n l f energy (Ha)
1 0 2.00
2 0 2.00
2 1 4.00
#
# PSEUDOPOTENTIAL AND OPTIMIZATION
# lmax
2
#
# l, rc, ep, ncon, nbas, qcut
0 1.35000 -0.87495 4 8 8.40000
1 1.45000 -0.32980 4 8 9.30000
2 1.25000 0.10000 4 8 6.00000
#
# LOCAL POTENTIAL
# lloc, lpopt, rc(5), dvloc0
4 5 1.20000 0.00000
#
# VANDERBILT-KLEINMAN-BYLANDER PROJECTORs
# l, nproj, debl
0 2 1.00000
1 2 1.00000
2 1 1.00000
#
# MODEL CORE CHARGE
# icmod, fcfact, rcfact
3 4.00000 1.50000
#
# LOG DERIVATIVE ANALYSIS
# epsh1, epsh2, depsh
-12.00 12.00 0.02
#
# OUTPUT GRID
# rlmax, drl
6.00 0.01
#
# TEST CONFIGURATIONS
# ncnf
0
# nvcnf
# n l f</PP_INPUTFILE></PP_INFO><PP_HEADER generated="Generated using ONCVPSP code by D. R. Hamann" author="anonymous" date="180301" comment="" element="O " pseudo_type="NC" relativistic="scalar" is_ultrasoft="F" is_paw="F" is_coulomb="F" has_so="F" has_wfc="F" has_gipaw="F" core_correction="T" functional="PBESOL" z_valence="    6.00" total_psenergy="  -3.14227124343E+01" rho_cutoff="   9.35000000000E+00" l_max="2" l_local="-1" mesh_size="   936" number_of_wfc="2" number_of_proj="5"/><PP_MESH><PP_R type="real" size=" 936" columns="8">
0.0000 0.0100 0.0200 0.0300 0.0400 0.0500 0.0600 0.0700
0.0800 0.0900 0.1000 0.1100 0.1200 0.1300 0.1400 0.1500
0.1600 0.1700 0.1800 0.1900 0.2000 0.2100 0.2200 0.2300
0.2400 0.2500 0.2600 0.2700 0.2800 0.2900 0.3000 0.3100
0.3200 0.3300 0.3400 0.3500 0.3600 0.3700 0.3800 0.3900
0.4000 0.4100 0.4200 0.4300 0.4400 0.4500 0.4600 0.4700
0.4800 0.4900 0.5000 0.5100 0.5200 0.5300 0.5400 0.5500
0.5600 0.5700 0.5800 0.5900 0.6000 0.6100 0.6200 0.6300
0.6400 0.6500 0.6600 0.6700 0.6800 0.6900 0.7000 0.7100
0.7200 0.7300 0.7400 0.7500 0.7600 0.7700 0.7800 0.7900
0.8000 0.8100 0.8200 0.8300 0.8400 0.8500 0.8600 0.8700
0.8800 0.8900 0.9000 0.9100 0.9200 0.9300 0.9400 0.9500
0.9600 0.9700 0.9800 0.9900 1.0000 1.0100 1.0200 1.0300
1.0400 1.0500 1.0600 1.0700 1.0800 1.0900 1.1000 1.1100
1.1200 1.1300 1.1400 1.1500 1.1600 1.1700 1.1800 1.1900
1.2000 1.2100 1.2200 1.2300 1.2400 1.2500 1.2600 1.2700
1.2800 1.2900 1.3000 1.3100 1.3200 1.3300 1.3400 1.3500
1.3600 1.3700 1.3800 1.3900 1.4000 1.4100 1.4200 1.4300
1.4400 1.4500 1.4600 1.4700 1.4800 1.4900 1.5000 1.5100
1.5200 1.5300 1.5400 1.5500 1.5600 1.5700 1.5800 1.5900
1.6000 1.6100 1.6200 1.6300 1.6400 1.6500 1.6600 1.6700
1.6800 1.6900 1.7000 1.7100 1.7200 1.7300 1.7400 1.7500
1.7600 1.7700 1.7800 1.7900 1.8000 1.8100 1.8200 1.8300
1.8400 1.8500 1.8600 1.8700 1.8800 1.8900 1.9000 1.9100
1.9200 1.9300 1.9400 1.9500 1.9600 1.9700 1.9800 1.9900
2.0000 2.0100 2.0200 2.0300 2.0400 2.0500 2.0600 2.0700
2.0800 2.0900 2.1000 2.1100 2.1200 2.1300 2.1400 2.1500
2.1600 2.1700 2.1800 2.1900 2.2000 2.2100 2.2200 2.2300
2.2400 2.2500 2.2600 2.2700 2.2800 2.2900 2.3000 2.3100
2.3200 2.3300 2.3400 2.3500 2.3600 2.3700 2.3800 2.3900
2.4000 2.4100 2.4200 2.4300 2.4400 2.4500 2.4600 2.4700
2.4800 2.4900 2.5000 2.5100 2.5200 2.5300 2.5400 2.5500
2.5600 2.5700 2.5800 2.5900 2.6000 2.6100 2.6200 2.6300
2.6400 2.6500 2.6600 2.6700 2.6800 2.6900 2.7000 2.7100
2.7200 2.7300 2.7400 2.7500 2.7600 2.7700 2.7800 2.7900
2.8000 2.8100 2.8200 2.8300 2.8400 2.8500 2.8600 2.8700
2.8800 2.8900 2.9000 2.9100 2.9200 2.9300 2.9400 2.9500
2.9600 2.9700 2.9800 2.9900 3.0000 3.0100 3.0200 3.0300
3.0400 3.0500 3.0600 3.0700 3.0800 3.0900 3.1000 3.1100
3.1200 3.1300 3.1400 3.1500 3.1600 3.1700 3.1800 3.1900
3.2000 3.2100 3.2200 3.2300 3.2400 3.2500 3.2600 3.2700
3.2800 3.2900 3.3000 3.3100 3.3200 3.3300 3.3400 3.3500
3.3600 3.3700 3.3800 3.3900 3.4000 3.4100 3.4200 3.4300
3.4400 3.4500 3.4600 3.4700 3.4800 3.4900 3.5000 3.5100
3.5200 3.5300 3.5400 3.5500 3.5600 3.5700 3.5800 3.5900
3.6000 3.6100 3.6200 3.6300 3.6400 3.6500 3.6600 3.6700
3.6800 3.6900 3.7000 3.7100 3.7200 3.7300 3.7400 3.7500
3.7600 3.7700 3.7800 3.7900 3.8000 3.8100 3.8200 3.8300
3.8400 3.8500 3.8600 3.8700 3.8800 3.8900 3.9000 3.9100
3.9200 3.9300 3.9400 3.9500 3.9600 3.9700 3.9800 3.9900
4.0000 4.0100 4.0200 4.0300 4.0400 4.0500 4.0600 4.0700
4.0800 4.0900 4.1000 4.1100 4.1200 4.1300 4.1400 4.1500
4.1600 4.1700 4.1800 4.1900 4.2000 4.2100 4.2200 4.2300
4.2400 4.2500 4.2600 4.2700 4.2800 4.2900 4.3000 4.3100
4.3200 4.3300 4.3400 4.3500 4.3600 4.3700 4.3800 4.3900
4.4000 4.4100 4.4200 4.4300 4.4400 4.4500 4.4600 4.4700
4.4800 4.4900 4.5000 4.5100 4.5200 4.5300 4.5400 4.5500
4.5600 4.5700 4.5800 4.5900 4.6000 4.6100 4.6200 4.6300
4.6400 4.6500 4.6600 4.6700 4.6800 4.6900 4.7000 4.7100
4.7200 4.7300 4.7400 4.7500 4.7600 4.7700 4.7800 4.7900
4.8000 4.8100 4.8200 4.8300 4.8400 4.8500 4.8600 4.8700
4.8800 4.8900 4.9000 4.9100 4.9200 4.9300 4.9400 4.9500
4.9600 4.9700 4.9800 4.9900 5.0000 5.0100 5.0200 5.0300
5.0400 5.0500 5.0600 5.0700 5.0800 5.0900 5.1000 5.1100
5.1200 5.1300 5.1400 5.1500 5.1600 5.1700 5.1800 5.1900
5.2000 5.2100 5.2200 5.2300 5.2400 5.2500 5.2600 5.2700
5.2800 5.2900 5.3000 5.3100 5.3200 5.3300 5.3400 5.3500
5.3600 5.3700 5.3800 5.3900 5.4000 5.4100 5.4200 5.4300
5.4400 5.4500 5.4600 5.4700 5.4800 5.4900 5.5000 5.5100
5.5200 5.5300 5.5400 5.5500 5.5600 5.5700 5.5800 5.5900
5.6000 5.6100 5.6200 5.6300 5.6400 5.6500 5.6600 5.6700
5.6800 5.6900 5.7000 5.7100 5.7200 5.7300 5.7400 5.7500
5.7600 5.7700 5.7800 5.7900 5.8000 5.8100 5.8200 5.8300
5.8400 5.8500 5.8600 5.8700 5.8800 5.8900 5.9000 5.9100
5.9200 5.9300 5.9400 5.9500 5.9600 5.9700 5.9800 5.9900
6.0000 6.0100 6.0200 6.0300 6.0400 6.0500 6.0600 6.0700
6.0800 6.0900 6.1000 6.1100 6.1200 6.1300 6.1400 6.1500
6.1600 6.1700 6.1800 6.1900 6.2000 6.2100 6.2200 6.2300
6.2400 6.2500 6.2600 6.2700 6.2800 6.2900 6.3000 6.3100
6.3200 6.3300 6.3400 6.3500 6.3600 6.3700 6.3800 6.3900
6.4000 6.4100 6.4200 6.4300 6.4400 6.4500 6.4600 6.4700
6.4800 6.4900 6.5000 6.5100 6.5200 6.5300 6.5400 6.5500
6.5600 6.5700 6.5800 6.5900 6.6000 6.6100 6.6200 6.6300
6.6400 6.6500 6.6600 6.6700 6.6800 6.6900 6.7000 6.7100
6.7200 6.7300 6.7400 6.7500 6.7600 6.7700 6.7800 6.7900
6.8000 6.8100 6.8200 6.8300 6.8400 6.8500 6.8600 6.8700
6.8800 6.8900 6.9000 6.9100 6.9200 6.9300 6.9400 6.9500
6.9600 6.9700 6.9800 6.9900 7.0000 7.0100 7.0200 7.0300
7.0400 7.0500 7.0600 7.0700 7.0800 7.0900 7.1000 7.1100
7.1200 7.1300 7.1400 7.1500 7.1600 7.1700 7.1800 7.1900
7.2000 7.2100 7.2200 7.2300 7.2400 7.2500 7.2600 7.2700
7.2800 7.2900 7.3000 7.3100 7.3200 7.3300 7.3400 7.3500
7.3600 7.3700 7.3800 7.3900 7.4000 7.4100 7.4200 7.4300
7.4400 7.4500 7.4600 7.4700 7.4800 7.4900 7.5000 7.5100
7.5200 7.5300 7.5400 7.5500 7.5600 7.5700 7.5800 7.5900
7.6000 7.6100 7.6200 7.6300 7.6400 7.6500 7.6600 7.6700
7.6800 7.6900 7.7000 7.7100 7.7200 7.7300 7.7400 7.7500
7.7600 7.7700 7.7800 7.7900 7.8000 7.8100 7.8200 7.8300
7.8400 7.8500 7.8600 7.8700 7.8800 7.8900 7.9000 7.9100
7.9200 7.9300 7.9400 7.9500 7.9600 7.9700 7.9800 7.9900
8.0000 8.0100 8.0200 8.0300 8.0400 8.0500 8.0600 8.0700
8.0800 8.0900 8.1000 8.1100 8.1200 8.1300 8.1400 8.1500
8.1600 8.1700 8.1800 8.1900 8.2000 8.2100 8.2200 8.2300
8.2400 8.2500 8.2600 8.2700 8.2800 8.2900 8.3000 8.3100
8.3200 8.3300 8.3400 8.3500 8.3600 8.3700 8.3800 8.3900
8.4000 8.4100 8.4200 8.4300 8.4400 8.4500 8.4600 8.4700
8.4800 8.4900 8.5000 8.5100 8.5200 8.5300 8.5400 8.5500
8.5600 8.5700 8.5800 8.5900 8.6000 8.6100 8.6200 8.6300
8.6400 8.6500 8.6600 8.6700 8.6800 8.6900 8.7000 8.7100
8.7200 8.7300 8.7400 8.7500 8.7600 8.7700 8.7800 8.7900
8.8000 8.8100 8.8200 8.8300 8.8400 8.8500 8.8600 8.8700
8.8800 8.8900 8.9000 8.9100 8.9200 8.9300 8.9400 8.9500
8.9600 8.9700 8.9800 8.9900 9.0000 9.0100 9.0200 9.0300
9.0400 9.0500 9.0600 9.0700 9.0800 9.0900 9.1000 9.1100
9.1200 9.1300 9.1400 9.1500 9.1600 9.1700 9.1800 9.1900
9.2000 9.2100 9.2200 9.2300 9.2400 9.2500 9.2600 9.2700
9.2800 9.2900 9.3000 9.3100 9.3200 9.3300 9.3400 9.3500</PP_R><PP_RAB type="real" size=" 936" columns="8">
0.0100 0.0100 0.0100 0.0100 0.0100 0.0100 0.0100 0.0100
0.0100 0.0100 0.0100 0.0100 0.0100 0.0100 0.0100 0.0100
0.0100 0.0100 0.0100 0.0100 0.0100 0.0100 0.0100 0.0100
0.0100 0.0100 0.0100 0.0100 0.0100 0.0100 0.0100 0.0100
0.0100 0.0100 0.0100 0.0100 0.0100 0.0100 0.0100 0.0100
0.0100 0.0100 0.0100 0.0100 0.0100 0.0100 0.0100 0.0100
0.0100 0.0100 0.0100 0.0100 0.0100 0.0100 0.0100 0.0100
0.0100 0.0100 0.0100 0.0100 0.0100 0.0100 0.0100 0.0100
0.0100 0.0100 0.0100 0.0100 0.0100 0.0100 0.0100 0.0100
0.0100 0.0100 0.0100 0.0100 0.0100 0.0100 0.0100 0.0100
0.0100 0.0100 0.0100 0.0100 0.0100 0.0100 0.0100 0.0100
0.0100 0.0100 0.0100 0.0100 0.0100 0.0100 0.0100 0.0100
0.0100 0.0100 0.0100 0.0100 0.0100 0.0100 0.0100 0.0100
0.0100 0.0100 0.0100 0.0100 0.0100 0.0100 0.0100 0.0100
0.0100 0.0100 0.0100 0.0100 0.0100 0.0100 0.0100 0.0100
0.0100 0.0100 0.0100 0.0100 0.0100 0.0100 0.0100 0.0100
0.0100 0.0100 0.0100 0.0100 0.0100 0.0100 0.0100 0.0100
0.0100 0.0100 0.0100 0.0100 0.0100 0.0100 0.0100 0.0100
0.0100 0.0100 0.0100 0.0100 0.0100 0.0100 0.0100 0.0100
0.0100 0.0100 0.0100 0.0100 0.0100 0.0100 0.0100 0.0100
0.0100 0.0100 0.0100 0.0100 0.0100 0.0100 0.0100 0.0100
0.0100 0.0100 0.0100 0.0100 0.0100 0.0100 0.0100 0.0100
0.0100 0.0100 0.0100 0.0100 0.0100 0.0100 0.0100 0.0100
0.0100 0.0100 0.0100 0.0100 0.0100 0.0100 0.0100 0.0100
0.0100 0.0100 0.0100 0.0100 0.0100 0.0100 0.0100 0.0100
0.0100 0.0100 0.0100 0.0100 0.0100 0.0100 0.0100 0.0100
0.0100 0.0100 0.0100 0.0100 0.0100 0.0100 0.0100 0.0100
0.0100 0.0100 0.0100 0.0100 0.0100 0.0100 0.0100 0.0100
0.0100 0.0100 0.0100 0.0100 0.0100 0.0100 0.0100 0.0100
0.0100 0.0100 0.0100 0.0100 0.0100 0.0100 0.0100 0.0100
0.0100 0.0100 0.0100 0.0100 0.0100 0.0100 0.0100 0.0100
0.0100 0.0100 0.0100 0.0100 0.0100 0.0100 0.0100 0.0100
0.0100 0.0100 0.0100 0.0100 0.0100 0.0100 0.0100 0.0100
0.0100 0.0100 0.0100 0.0100 0.0100 0.0100 0.0100 0.0100
0.0100 0.0100 0.0100 0.0100 0.0100 0.0100 0.0100 0.0100
0.0100 0.0100 0.0100 0.0100 0.0100 0.0100 0.0100 0.0100
0.0100 0.0100 0.0100 0.0100 0.0100 0.0100 0.0100 0.0100
0.0100 0.0100 0.0100 0.0100 0.0100 0.0100 0.0100 0.0100
0.0100 0.0100 0.0100 0.0100 0.0100 0.0100 0.0100 0.0100
0.0100 0.0100 0.0100 0.0100 0.0100 0.0100 0.0100 0.0100
0.0100 0.0100 0.0100 0.0100 0.0100 0.0100 0.0100 0.0100
0.0100 0.0100 0.0100 0.0100 0.0100 0.0100 0.0100 0.0100
0.0100 0.0100 0.0100 0.0100 0.0100 0.0100 0.0100 0.0100
0.0100 0.0100 0.0100 0.0100 0.0100 0.0100 0.0100 0.0100
0.0100 0.0100 0.0100 0.0100 0.0100 0.0100 0.0100 0.0100
0.0100 0.0100 0.0100 0.0100 0.0100 0.0100 0.0100 0.0100
0.0100 0.0100 0.0100 0.0100 0.0100 0.0100 0.0100 0.0100
0.0100 0.0100 0.0100 0.0100 0.0100 0.0100 0.0100 0.0100
0.0100 0.0100 0.0100 0.0100 0.0100 0.0100 0.0100 0.0100
0.0100 0.0100 0.0100 0.0100 0.0100 0.0100 0.0100 0.0100
0.0100 0.0100 0.0100 0.0100 0.0100 0.0100 0.0100 0.0100
0.0100 0.0100 0.0100 0.0100 0.0100 0.0100 0.0100 0.0100
0.0100 0.0100 0.0100 0.0100 0.0100 0.0100 0.0100 0.0100
0.0100 0.0100 0.0100 0.0100 0.0100 0.0100 0.0100 0.0100
0.0100 0.0100 0.0100 0.0100 0.0100 0.0100 0.0100 0.0100
0.0100 0.0100 0.0100 0.0100 0.0100 0.0100 0.0100 0.0100
0.0100 0.0100 0.0100 0.0100 0.0100 0.0100 0.0100 0.0100
0.0100 0.0100 0.0100 0.0100 0.0100 0.0100 0.0100 0.0100
0.0100 0.0100 0.0100 0.0100 0.0100 0.0100 0.0100 0.0100
0.0100 0.0100 0.0100 0.0100 0.0100 0.0100 0.0100 0.0100
0.0100 0.0100 0.0100 0.0100 0.0100 0.0100 0.0100 0.0100
0.0100 0.0100 0.0100 0.0100 0.0100 0.0100 0.0100 0.0100
0.0100 0.0100 0.0100 0.0100 0.0100 0.0100 0.0100 0.0100
0.0100 0.0100 0.0100 0.0100 0.0100 0.0100 0.0100 0.0100
0.0100 0.0100 0.0100 0.0100 0.0100 0.0100 0.0100 0.0100
0.0100 0.0100 0.0100 0.0100 0.0100 0.0100 0.0100 0.0100
0.0100 0.0100 0.0100 0.0100 0.0100 0.0100 0.0100 0.0100
0.0100 0.0100 0.0100 0.0100 0.0100 0.0100 0.0100 0.0100
0.0100 0.0100 0.0100 0.0100 0.0100 0.0100 0.0100 0.0100
0.0100 0.0100 0.0100 0.0100 0.0100 0.0100 0.0100 0.0100
0.0100 0.0100 0.0100 0.0100 0.0100 0.0100 0.0100 0.0100
0.0100 0.0100 0.0100 0.0100 0.0100 0.0100 0.0100 0.0100
0.0100 0.0100 0.0100 0.0100 0.0100 0.0100 0.0100 0.0100
0.0100 0.0100 0.0100 0.0100 0.0100 0.0100 0.0100 0.0100
0.0100 0.0100 0.0100 0.0100 0.0100 0.0100 0.0100 0.0100
0.0100 0.0100 0.0100 0.0100 0.0100 0.0100 0.0100 0.0100
0.0100 0.0100 0.0100 0.0100 0.0100 0.0100 0.0100 0.0100
0.0100 0.0100 0.0100 0.0100 0.0100 0.0100 0.0100 0.0100
0.0100 0.0100 0.0100 0.0100 0.0100 0.0100 0.0100 0.0100
0.0100 0.0100 0.0100 0.0100 0.0100 0.0100 0.0100 0.0100
0.0100 0.0100 0.0100 0.0100 0.0100 0.0100 0.0100 0.0100
0.0100 0.0100 0.0100 0.0100 0.0100 0.0100 0.0100 0.0100
0.0100 0.0100 0.0100 0.0100 0.0100 0.0100 0.0100 0.0100
0.0100 0.0100 0.0100 0.0100 0.0100 0.0100 0.0100 0.0100
0.0100 0.0100 0.0100 0.0100 0.0100 0.0100 0.0100 0.0100
0.0100 0.0100 0.0100 0.0100 0.0100 0.0100 0.0100 0.0100
0.0100 0.0100 0.0100 0.0100 0.0100 0.0100 0.0100 0.0100
0.0100 0.0100 0.0100 0.0100 0.0100 0.0100 0.0100 0.0100
0.0100 0.0100 0.0100 0.0100 0.0100 0.0100 0.0100 0.0100
0.0100 0.0100 0.0100 0.0100 0.0100 0.0100 0.0100 0.0100
0.0100 0.0100 0.0100 0.0100 0.0100 0.0100 0.0100 0.0100
0.0100 0.0100 0.0100 0.0100 0.0100 0.0100 0.0100 0.0100
0.0100 0.0100 0.0100 0.0100 0.0100 0.0100 0.0100 0.0100
0.0100 0.0100 0.0100 0.0100 0.0100 0.0100 0.0100 0.0100
0.0100 0.0100 0.0100 0.0100 0.0100 0.0100 0.0100 0.0100
0.0100 0.0100 0.0100 0.0100 0.0100 0.0100 0.0100 0.0100
0.0100 0.0100 0.0100 0.0100 0.0100 0.0100 0.0100 0.0100
0.0100 0.0100 0.0100 0.0100 0.0100 0.0100 0.0100 0.0100
0.0100 0.0100 0.0100 0.0100 0.0100 0.0100 0.0100 0.0100
0.0100 0.0100 0.0100 0.0100 0.0100 0.0100 0.0100 0.0100
0.0100 0.0100 0.0100 0.0100 0.0100 0.0100 0.0100 0.0100
0.0100 0.0100 0.0100 0.0100 0.0100 0.0100 0.0100 0.0100
0.0100 0.0100 0.0100 0.0100 0.0100 0.0100 0.0100 0.0100
0.0100 0.0100 0.0100 0.0100 0.0100 0.0100 0.0100 0.0100
0.0100 0.0100 0.0100 0.0100 0.0100 0.0100 0.0100 0.0100
0.0100 0.0100 0.0100 0.0100 0.0100 0.0100 0.0100 0.0100
0.0100 0.0100 0.0100 0.0100 0.0100 0.0100 0.0100 0.0100
0.0100 0.0100 0.0100 0.0100 0.0100 0.0100 0.0100 0.0100
0.0100 0.0100 0.0100 0.0100 0.0100 0.0100 0.0100 0.0100
0.0100 0.0100 0.0100 0.0100 0.0100 0.0100 0.0100 0.0100
0.0100 0.0100 0.0100 0.0100 0.0100 0.0100 0.0100 0.0100
0.0100 0.0100 0.0100 0.0100 0.0100 0.0100 0.0100 0.0100
0.0100 0.0100 0.0100 0.0100 0.0100 0.0100 0.0100 0.0100
0.0100 0.0100 0.0100 0.0100 0.0100 0.0100 0.0100 0.0100
0.0100 0.0100 0.0100 0.0100 0.0100 0.0100 0.0100 0.0100
0.0100 0.0100 0.0100 0.0100 0.0100 0.0100 0.0100 0.0100
0.0100 0.0100 0.0100 0.0100 0.0100 0.0100 0.0100 0.0100</PP_RAB></PP_MESH><PP_LOCAL type="real" size=" 936" columns="4">
-2.0549638440E+01 -2.0548466956E+01 -2.0544965860E+01 -2.0539175023E+01
-2.0531158546E+01 -2.0521001552E+01 -2.0508806019E+01 -2.0494685983E+01
-2.0478762457E+01 -2.0461158370E+01 -2.0441993827E+01 -2.0421381897E+01
-2.0399425082E+01 -2.0376212554E+01 -2.0351818165E+01 -2.0326299199E+01
-2.0299695786E+01 -2.0272030874E+01 -2.0243310651E+01 -2.0213525304E+01
-2.0182650014E+01 -2.0150646086E+01 -2.0117462155E+01 -2.0083035398E+01
-2.0047292723E+01 -2.0010151888E+01 -1.9971522562E+01 -1.9931307306E+01
-1.9889402473E+01 -1.9845699054E+01 -1.9800083470E+01 -1.9752438327E+01
-1.9702643166E+01 -1.9650575223E+01 -1.9596110239E+01 -1.9539123358E+01
-1.9479490152E+01 -1.9417087844E+01 -1.9351796768E+01 -1.9283502136E+01
-1.9212096156E+01 -1.9137480521E+01 -1.9059569252E+01 -1.8978291832E+01
-1.8893596502E+01 -1.8805453491E+01 -1.8713857944E+01 -1.8618832212E+01
-1.8520427212E+01 -1.8418722563E+01 -1.8313825355E+01 -1.8205867481E+01
-1.8095001707E+01 -1.7981396740E+01 -1.7865231748E+01 -1.7746690806E+01
-1.7625957770E+01 -1.7503211968E+01 -1.7378625000E+01 -1.7252358739E+01
-1.7124564514E+01 -1.6995383304E+01 -1.6864946697E+01 -1.6733378360E+01
-1.6600795734E+01 -1.6467311753E+01 -1.6333036383E+01 -1.6198077894E+01
-1.6062543771E+01 -1.5926541268E+01 -1.5790177599E+01 -1.5653559828E+01
-1.5516794493E+01 -1.5379987053E+01 -1.5243241205E+01 -1.5106658159E+01
-1.4970335911E+01 -1.4834368581E+01 -1.4698845835E+01 -1.4563852437E+01
-1.4429467930E+01 -1.4295766456E+01 -1.4162816711E+01 -1.4030682013E+01
-1.3899420483E+01 -1.3769085303E+01 -1.3639725038E+01 -1.3511384003E+01
-1.3384102653E+01 -1.3257917977E+01 -1.3132863892E+01 -1.3008971610E+01
-1.2886269985E+01 -1.2764785819E+01 -1.2644544131E+01 -1.2525568388E+01
-1.2407880684E+01 -1.2291501888E+01 -1.2176451736E+01 -1.2062748899E+01
-1.1950411000E+01 -1.1839454603E+01 -1.1729895176E+01 -1.1621747015E+01
-1.1515023155E+01 -1.1409735259E+01 -1.1305893487E+01 -1.1203506359E+01
-1.1102580606E+01 -1.1003121013E+01 -1.0905130267E+01 -1.0808608799E+01
-1.0713554632E+01 -1.0619963231E+01 -1.0527827367E+01 -1.0437136976E+01
-1.0347879044E+01 -1.0260037483E+01 -1.0173593026E+01 -1.0088523186E+01
-1.0004802027E+01 -9.9224001865E+00 -9.8412866985E+00 -9.7614308140E+00
-9.6828032599E+00 -9.6053758532E+00 -9.5291215496E+00 -9.4540144204E+00
-9.3800296316E+00 -9.3071434425E+00 -9.2353331626E+00 -9.1645771779E+00
-9.0948546195E+00 -9.0261454011E+00 -8.9584307297E+00 -8.8916949542E+00
-8.8259276007E+00 -8.7611217275E+00 -8.6972712598E+00 -8.6343656344E+00
-8.5723908616E+00 -8.5113310819E+00 -8.4511721735E+00 -8.3919014832E+00
-8.3335053195E+00 -8.2759646358E+00 -8.2192514117E+00 -8.1633330142E+00
-8.1081764422E+00 -8.0537574737E+00 -8.0000601444E+00 -7.9470726119E+00
-7.8947842012E+00 -7.8431811794E+00 -7.7922495009E+00 -7.7419758266E+00
-7.6923473006E+00 -7.6433517529E+00 -7.5949771494E+00 -7.5472115891E+00
-7.5000435107E+00 -7.4534616465E+00 -7.4074549972E+00 -7.3620128399E+00
-7.3171246922E+00 -7.2727803498E+00 -7.2289699846E+00 -7.1856839819E+00
-7.1429128497E+00 -7.1006472554E+00 -7.0588778298E+00 -7.0175956078E+00
-6.9767925630E+00 -6.9364610738E+00 -6.8965937475E+00 -6.8571831913E+00
-6.8182213757E+00 -6.7797001507E+00 -6.7416117794E+00 -6.7039488277E+00
-6.6667042148E+00 -6.6298711469E+00 -6.5934428985E+00 -6.5574127916E+00
-6.5217743094E+00 -6.4865211119E+00 -6.4516469894E+00 -6.4171458584E+00
-6.3830117666E+00 -6.3492388880E+00 -6.3158215191E+00 -6.2827540758E+00
-6.2500310905E+00 -6.2176472088E+00 -6.1855971866E+00 -6.1538758876E+00
-6.1224782801E+00 -6.0913994348E+00 -6.0606345217E+00 -6.0301788082E+00
-6.0000276560E+00 -5.9701765194E+00 -5.9406209427E+00 -5.9113565577E+00
-5.8823790822E+00 -5.8536843174E+00 -5.8252681460E+00 -5.7971265303E+00
-5.7692555103E+00 -5.7416512018E+00 -5.7143097945E+00 -5.6872275502E+00
-5.6604008017E+00 -5.6338259501E+00 -5.6074994642E+00 -5.5814178783E+00
-5.5555777910E+00 -5.5299758634E+00 -5.5046088180E+00 -5.4794734372E+00
-5.4545665619E+00 -5.4298850900E+00 -5.4054259756E+00 -5.3811862272E+00
-5.3571629068E+00 -5.3333531286E+00 -5.3097540579E+00 -5.2863629099E+00
-5.2631769489E+00 -5.2401934867E+00 -5.2174098819E+00 -5.1948235389E+00
-5.1724319070E+00 -5.1502324789E+00 -5.1282227907E+00 -5.1064004199E+00
-5.0847629854E+00 -5.0633081462E+00 -5.0420336006E+00 -5.0209370855E+00
-5.0000163755E+00 -4.9792692821E+00 -4.9586936530E+00 -4.9382873713E+00
-4.9180483549E+00 -4.8979745556E+00 -4.8780639585E+00 -4.8583145814E+00
-4.8387244741E+00 -4.8192917176E+00 -4.8000144237E+00 -4.7808907343E+00
-4.7619188207E+00 -4.7430968832E+00 -4.7244231504E+00 -4.7058958787E+00
-4.6875133519E+00 -4.6692738802E+00 -4.6511758003E+00 -4.6332174744E+00
-4.6153972899E+00 -4.5977136590E+00 -4.5801650182E+00 -4.5627498275E+00
-4.5454665706E+00 -4.5283137539E+00 -4.5112899062E+00 -4.4943935785E+00
-4.4776233433E+00 -4.4609777943E+00 -4.4444555463E+00 -4.4280552342E+00
-4.4117755132E+00 -4.3956150581E+00 -4.3795725630E+00 -4.3636467413E+00
-4.3478363246E+00 -4.3321400632E+00 -4.3165567251E+00 -4.3010850961E+00
-4.2857239795E+00 -4.2704721952E+00 -4.2553285803E+00 -4.2402919881E+00
-4.2253612881E+00 -4.2105353656E+00 -4.1958131216E+00 -4.1811934723E+00
-4.1666753491E+00 -4.1522576981E+00 -4.1379394799E+00 -4.1237196695E+00
-4.1095972559E+00 -4.0955712417E+00 -4.0816406434E+00 -4.0678044907E+00
-4.0540618263E+00 -4.0404117059E+00 -4.0268531979E+00 -4.0133853831E+00
-4.0000073546E+00 -3.9867182175E+00 -3.9735170888E+00 -3.9604030972E+00
-3.9473753827E+00 -3.9344330967E+00 -3.9215754018E+00 -3.9088014712E+00
-3.8961104891E+00 -3.8835016503E+00 -3.8709741597E+00 -3.8585272326E+00
-3.8461600945E+00 -3.8338719806E+00 -3.8216621358E+00 -3.8095298148E+00
-3.7974742816E+00 -3.7854948094E+00 -3.7735906808E+00 -3.7617611872E+00
-3.7500056288E+00 -3.7383233147E+00 -3.7267135625E+00 -3.7151756982E+00
-3.7037090563E+00 -3.6923129793E+00 -3.6809868177E+00 -3.6697299302E+00
-3.6585416832E+00 -3.6474214508E+00 -3.6363686147E+00 -3.6253825639E+00
-3.6144626951E+00 -3.6036084120E+00 -3.5928191254E+00 -3.5820942534E+00
-3.5714332208E+00 -3.5608354593E+00 -3.5503004073E+00 -3.5398275099E+00
-3.5294162186E+00 -3.5190659914E+00 -3.5087762927E+00 -3.4985465930E+00
-3.4883763692E+00 -3.4782651040E+00 -3.4682122861E+00 -3.4582174104E+00
-3.4482799773E+00 -3.4383994930E+00 -3.4285754694E+00 -3.4188074238E+00
-3.4090948792E+00 -3.3994373640E+00 -3.3898344116E+00 -3.3802855612E+00
-3.3707903566E+00 -3.3613483472E+00 -3.3519590870E+00 -3.3426221354E+00
-3.3333370564E+00 -3.3241034189E+00 -3.3149207966E+00 -3.3057887679E+00
-3.2967069157E+00 -3.2876748277E+00 -3.2786920960E+00 -3.2697583171E+00
-3.2608730918E+00 -3.2520360255E+00 -3.2432467276E+00 -3.2345048120E+00
-3.2258098964E+00 -3.2171616028E+00 -3.2085595572E+00 -3.2000033897E+00
-3.1914927342E+00 -3.1830272285E+00 -3.1746065143E+00 -3.1662302370E+00
-3.1578980458E+00 -3.1496095936E+00 -3.1413645367E+00 -3.1331625354E+00
-3.1250032532E+00 -3.1168863573E+00 -3.1088115181E+00 -3.1007784097E+00
-3.0927867095E+00 -3.0848360980E+00 -3.0769262591E+00 -3.0690568801E+00
-3.0612276513E+00 -3.0534382662E+00 -3.0456884214E+00 -3.0379778165E+00
-3.0303061543E+00 -3.0226731406E+00 -3.0150784839E+00 -3.0075218959E+00
-3.0000030911E+00 -2.9925217868E+00 -2.9850777030E+00 -2.9776705628E+00
-2.9703000918E+00 -2.9629660184E+00 -2.9556680735E+00 -2.9484059910E+00
-2.9411795070E+00 -2.9339883605E+00 -2.9268322929E+00 -2.9197110482E+00
-2.9126243727E+00 -2.9055720153E+00 -2.8985537275E+00 -2.8915692627E+00
-2.8846183773E+00 -2.8777008295E+00 -2.8708163801E+00 -2.8639647921E+00
-2.8571458308E+00 -2.8503592636E+00 -2.8436048604E+00 -2.8368823929E+00
-2.8301916352E+00 -2.8235323634E+00 -2.8169043559E+00 -2.8103073929E+00
-2.8037412569E+00 -2.7972057323E+00 -2.7907006054E+00 -2.7842256648E+00
-2.7777807007E+00 -2.7713655056E+00 -2.7649798735E+00 -2.7586236007E+00
-2.7522964851E+00 -2.7459983265E+00 -2.7397289266E+00 -2.7334880889E+00
-2.7272756186E+00 -2.7210913227E+00 -2.7149350100E+00 -2.7088064911E+00
-2.7027055780E+00 -2.6966320848E+00 -2.6905858268E+00 -2.6845666215E+00
-2.6785742876E+00 -2.6726086455E+00 -2.6666695173E+00 -2.6607567267E+00
-2.6548700988E+00 -2.6490094604E+00 -2.6431746397E+00 -2.6373654665E+00
-2.6315817721E+00 -2.6258233892E+00 -2.6200901519E+00 -2.6143818961E+00
-2.6086984587E+00 -2.6030396782E+00 -2.5974053945E+00 -2.5917954489E+00
-2.5862096841E+00 -2.5806479439E+00 -2.5751100738E+00 -2.5695959205E+00
-2.5641053318E+00 -2.5586381570E+00 -2.5531942467E+00 -2.5477734528E+00
-2.5423756282E+00 -2.5370006274E+00 -2.5316483058E+00 -2.5263185202E+00
-2.5210111285E+00 -2.5157259901E+00 -2.5104629650E+00 -2.5052219150E+00
-2.5000027026E+00 -2.4948051915E+00 -2.4896292469E+00 -2.4844747347E+00
-2.4793415220E+00 -2.4742294771E+00 -2.4691384693E+00 -2.4640683691E+00
-2.4590190479E+00 -2.4539903783E+00 -2.4489822338E+00 -2.4439944889E+00
-2.4390270194E+00 -2.4340797017E+00 -2.4291524137E+00 -2.4242450338E+00
-2.4193574416E+00 -2.4144895177E+00 -2.4096411437E+00 -2.4048122019E+00
-2.4000025758E+00 -2.3952121498E+00 -2.3904408090E+00 -2.3856884397E+00
-2.3809549289E+00 -2.3762401646E+00 -2.3715440357E+00 -2.3668664319E+00
-2.3622072438E+00 -2.3575663628E+00 -2.3529436813E+00 -2.3483390924E+00
-2.3437524901E+00 -2.3391837692E+00 -2.3346328254E+00 -2.3300995551E+00
-2.3255838556E+00 -2.3210856248E+00 -2.3166047616E+00 -2.3121411657E+00
-2.3076947374E+00 -2.3032653779E+00 -2.2988529890E+00 -2.2944574734E+00
-2.2900787346E+00 -2.2857166766E+00 -2.2813712043E+00 -2.2770422234E+00
-2.2727296400E+00 -2.2684333612E+00 -2.2641532947E+00 -2.2598893490E+00
-2.2556414331E+00 -2.2514094568E+00 -2.2471933305E+00 -2.2429929654E+00
-2.2388082733E+00 -2.2346391665E+00 -2.2304855582E+00 -2.2263473622E+00
-2.2222244928E+00 -2.2181168650E+00 -2.2140243944E+00 -2.2099469973E+00
-2.2058845907E+00 -2.2018370919E+00 -2.1978044190E+00 -2.1937864909E+00
-2.1897832266E+00 -2.1857945461E+00 -2.1818203699E+00 -2.1778606190E+00
-2.1739152150E+00 -2.1699840800E+00 -2.1660671368E+00 -2.1621643087E+00
-2.1582755195E+00 -2.1544006936E+00 -2.1505397560E+00 -2.1466926320E+00
-2.1428592477E+00 -2.1390395297E+00 -2.1352334049E+00 -2.1314408009E+00
-2.1276616459E+00 -2.1238958684E+00 -2.1201433975E+00 -2.1164041628E+00
-2.1126780944E+00 -2.1089651229E+00 -2.1052651793E+00 -2.1015781952E+00
-2.0979041027E+00 -2.0942428341E+00 -2.0905943226E+00 -2.0869585015E+00
-2.0833353048E+00 -2.0797246669E+00 -2.0761265224E+00 -2.0725408068E+00
-2.0689674556E+00 -2.0654064052E+00 -2.0618575920E+00 -2.0583209531E+00
-2.0547964260E+00 -2.0512839485E+00 -2.0477834589E+00 -2.0442948961E+00
-2.0408181991E+00 -2.0373533076E+00 -2.0339001614E+00 -2.0304587009E+00
-2.0270288670E+00 -2.0236106009E+00 -2.0202038440E+00 -2.0168085384E+00
-2.0134246264E+00 -2.0100520509E+00 -2.0066907548E+00 -2.0033406817E+00
-2.0000017756E+00 -1.9966739805E+00 -1.9933572413E+00 -1.9900515029E+00
-1.9867567106E+00 -1.9834728102E+00 -1.9801997477E+00 -1.9769374696E+00
-1.9736859227E+00 -1.9704450541E+00 -1.9672148113E+00 -1.9639951421E+00
-1.9607859947E+00 -1.9575873176E+00 -1.9543990596E+00 -1.9512211699E+00
-1.9480535981E+00 -1.9448962939E+00 -1.9417492075E+00 -1.9386122895E+00
-1.9354854905E+00 -1.9323687617E+00 -1.9292620545E+00 -1.9261653207E+00
-1.9230785124E+00 -1.9200015818E+00 -1.9169344817E+00 -1.9138771650E+00
-1.9108295849E+00 -1.9077916951E+00 -1.9047634494E+00 -1.9017448020E+00
-1.8987357072E+00 -1.8957361198E+00 -1.8927459949E+00 -1.8897652877E+00
-1.8867939537E+00 -1.8838319490E+00 -1.8808792295E+00 -1.8779357517E+00
-1.8750014722E+00 -1.8720763481E+00 -1.8691603365E+00 -1.8662533950E+00
-1.8633554812E+00 -1.8604665532E+00 -1.8575865693E+00 -1.8547154879E+00
-1.8518532679E+00 -1.8489998683E+00 -1.8461552484E+00 -1.8433193678E+00
-1.8404921861E+00 -1.8376736635E+00 -1.8348637603E+00 -1.8320624369E+00
-1.8292696542E+00 -1.8264853731E+00 -1.8237095548E+00 -1.8209421609E+00
-1.8181831530E+00 -1.8154324932E+00 -1.8126901434E+00 -1.8099560663E+00
-1.8072302243E+00 -1.8045125803E+00 -1.8018030975E+00 -1.7991017390E+00
-1.7964084684E+00 -1.7937232495E+00 -1.7910460462E+00 -1.7883768226E+00
-1.7857155431E+00 -1.7830621724E+00 -1.7804166751E+00 -1.7777790164E+00
-1.7751491614E+00 -1.7725270756E+00 -1.7699127245E+00 -1.7673060741E+00
-1.7647070902E+00 -1.7621157392E+00 -1.7595319875E+00 -1.7569558017E+00
-1.7543871486E+00 -1.7518259953E+00 -1.7492723088E+00 -1.7467260567E+00
-1.7441872065E+00 -1.7416557260E+00 -1.7391315831E+00 -1.7366147459E+00
-1.7341051829E+00 -1.7316028625E+00 -1.7291077534E+00 -1.7266198245E+00
-1.7241390448E+00 -1.7216653836E+00 -1.7191988102E+00 -1.7167392943E+00
-1.7142868055E+00 -1.7118413139E+00 -1.7094027896E+00 -1.7069712027E+00
-1.7045465237E+00 -1.7021287233E+00 -1.6997177721E+00 -1.6973136413E+00
-1.6949163017E+00 -1.6925257248E+00 -1.6901418818E+00 -1.6877647445E+00
-1.6853942846E+00 -1.6830304739E+00 -1.6806732846E+00 -1.6783226888E+00
-1.6759786589E+00 -1.6736411675E+00 -1.6713101871E+00 -1.6689856908E+00
-1.6666676514E+00 -1.6643560421E+00 -1.6620508361E+00 -1.6597520069E+00
-1.6574595281E+00 -1.6551733734E+00 -1.6528935167E+00 -1.6506199319E+00
-1.6483525932E+00 -1.6460914749E+00 -1.6438365515E+00 -1.6415877976E+00
-1.6393451878E+00 -1.6371086969E+00 -1.6348783001E+00 -1.6326539724E+00
-1.6304356891E+00 -1.6282234255E+00 -1.6260171572E+00 -1.6238168600E+00
-1.6216225094E+00 -1.6194340816E+00 -1.6172515525E+00 -1.6150748983E+00
-1.6129040953E+00 -1.6107391200E+00 -1.6085799490E+00 -1.6064265589E+00
-1.6042789265E+00 -1.6021370287E+00 -1.6000008428E+00 -1.5978703457E+00
-1.5957455149E+00 -1.5936263277E+00 -1.5915127617E+00 -1.5894047946E+00
-1.5873024041E+00 -1.5852055681E+00 -1.5831142647E+00 -1.5810284721E+00
-1.5789481683E+00 -1.5768733318E+00 -1.5748039412E+00 -1.5727399748E+00
-1.5706814116E+00 -1.5686282302E+00 -1.5665804096E+00 -1.5645379289E+00
-1.5625007671E+00 -1.5604689035E+00 -1.5584423175E+00 -1.5564209886E+00
-1.5544048962E+00 -1.5523940202E+00 -1.5503883402E+00 -1.5483878362E+00
-1.5463924881E+00 -1.5444022761E+00 -1.5424171803E+00 -1.5404371811E+00
-1.5384622587E+00 -1.5364923938E+00 -1.5345275670E+00 -1.5325677588E+00
-1.5306129502E+00 -1.5286631220E+00 -1.5267182552E+00 -1.5247783309E+00
-1.5228433302E+00 -1.5209132345E+00 -1.5189880252E+00 -1.5170676836E+00
-1.5151521914E+00 -1.5132415302E+00 -1.5113356818E+00 -1.5094346279E+00
-1.5075383506E+00 -1.5056468318E+00 -1.5037600537E+00 -1.5018779985E+00
-1.5000006484E+00 -1.4981279858E+00 -1.4962599932E+00 -1.4943966531E+00
-1.4925379483E+00 -1.4906838613E+00 -1.4888343751E+00 -1.4869894725E+00
-1.4851491364E+00 -1.4833133501E+00 -1.4814820965E+00 -1.4796553591E+00
-1.4778331209E+00 -1.4760153656E+00 -1.4742020764E+00 -1.4723932371E+00
-1.4705888312E+00 -1.4687888425E+00 -1.4669932547E+00 -1.4652020517E+00
-1.4634152176E+00 -1.4616327363E+00 -1.4598545919E+00 -1.4580807687E+00
-1.4563112509E+00 -1.4545460228E+00 -1.4527850689E+00 -1.4510283736E+00
-1.4492759216E+00 -1.4475276975E+00 -1.4457836860E+00 -1.4440438718E+00