<UPF version="2.0.1"><PP_INFO>This pseudopotential file has been produced using the code
ONCVPSP (Optimized Norm-Conservinng Vanderbilt PSeudopotential)
scalar-relativistic version 3.3.0 08/16/2017 by D. R. Hamann
The code is available through a link at URL www.mat-simresearch.com.
Documentation with the package provides a full discription of the
input data below.
While it is not required under the terms of the GNU GPL, it is
suggested that you cite D. R. Hamann, Phys. Rev. B 88, 085117 (2013)
in any publication using these pseudopotentials.<PP_INPUTFILE>
# ATOM AND REFERENCE CONFIGURATION
# atsym z nc nv iexc psfile
Rn 86.00 12 3 -116133 upf
#
# n l f energy (Ha)
1 0 2.00
2 0 2.00
2 1 6.00
3 0 2.00
3 1 6.00
3 2 10.00
4 0 2.00
4 1 6.00
4 2 10.00
5 0 2.00
5 1 6.00
4 3 14.00
5 2 10.00
6 0 2.00
6 1 6.00
#
# PSEUDOPOTENTIAL AND OPTIMIZATION
# lmax
2
#
# l, rc, ep, ncon, nbas, qcut
0 2.20000 -0.80632 4 7 3.60000
1 2.00000 -0.28439 4 7 4.60000
2 1.80000 -1.69941 4 8 8.40000
#
# LOCAL POTENTIAL
# lloc, lpopt, rc(5), dvloc0
4 5 1.80000 0.00000
#
# VANDERBILT-KLEINMAN-BYLANDER PROJECTORs
# l, nproj, debl
0 2 2.80000
1 2 2.50000
2 2 1.80000
#
# MODEL CORE CHARGE
# icmod, fcfact, rcfact
3 6.00000 1.34000
#
# LOG DERIVATIVE ANALYSIS
# epsh1, epsh2, depsh
-12.00 12.00 0.02
#
# OUTPUT GRID
# rlmax, drl
6.00 0.01
#
# TEST CONFIGURATIONS
# ncnf
0
# nvcnf
# n l f</PP_INPUTFILE></PP_INFO><PP_HEADER generated="Generated using ONCVPSP code by D. R. Hamann" author="anonymous" date="180301" comment="" element="Rn" pseudo_type="NC" relativistic="scalar" is_ultrasoft="F" is_paw="F" is_coulomb="F" has_so="F" has_wfc="F" has_gipaw="F" core_correction="T" functional="PBESOL" z_valence="   18.00" total_psenergy="  -2.19952369209E+02" rho_cutoff="   1.14500000000E+01" l_max="2" l_local="-1" mesh_size="  1146" number_of_wfc="3" number_of_proj="6"/><PP_MESH><PP_R type="real" size="1146" columns="8">
0.0000 0.0100 0.0200 0.0300 0.0400 0.0500 0.0600 0.0700
0.0800 0.0900 0.1000 0.1100 0.1200 0.1300 0.1400 0.1500
0.1600 0.1700 0.1800 0.1900 0.2000 0.2100 0.2200 0.2300
0.2400 0.2500 0.2600 0.2700 0.2800 0.2900 0.3000 0.3100
0.3200 0.3300 0.3400 0.3500 0.3600 0.3700 0.3800 0.3900
0.4000 0.4100 0.4200 0.4300 0.4400 0.4500 0.4600 0.4700
0.4800 0.4900 0.5000 0.5100 0.5200 0.5300 0.5400 0.5500
0.5600 0.5700 0.5800 0.5900 0.6000 0.6100 0.6200 0.6300
0.6400 0.6500 0.6600 0.6700 0.6800 0.6900 0.7000 0.7100
0.7200 0.7300 0.7400 0.7500 0.7600 0.7700 0.7800 0.7900
0.8000 0.8100 0.8200 0.8300 0.8400 0.8500 0.8600 0.8700
0.8800 0.8900 0.9000 0.9100 0.9200 0.9300 0.9400 0.9500
0.9600 0.9700 0.9800 0.9900 1.0000 1.0100 1.0200 1.0300
1.0400 1.0500 1.0600 1.0700 1.0800 1.0900 1.1000 1.1100
1.1200 1.1300 1.1400 1.1500 1.1600 1.1700 1.1800 1.1900
1.2000 1.2100 1.2200 1.2300 1.2400 1.2500 1.2600 1.2700
1.2800 1.2900 1.3000 1.3100 1.3200 1.3300 1.3400 1.3500
1.3600 1.3700 1.3800 1.3900 1.4000 1.4100 1.4200 1.4300
1.4400 1.4500 1.4600 1.4700 1.4800 1.4900 1.5000 1.5100
1.5200 1.5300 1.5400 1.5500 1.5600 1.5700 1.5800 1.5900
1.6000 1.6100 1.6200 1.6300 1.6400 1.6500 1.6600 1.6700
1.6800 1.6900 1.7000 1.7100 1.7200 1.7300 1.7400 1.7500
1.7600 1.7700 1.7800 1.7900 1.8000 1.8100 1.8200 1.8300
1.8400 1.8500 1.8600 1.8700 1.8800 1.8900 1.9000 1.9100
1.9200 1.9300 1.9400 1.9500 1.9600 1.9700 1.9800 1.9900
2.0000 2.0100 2.0200 2.0300 2.0400 2.0500 2.0600 2.0700
2.0800 2.0900 2.1000 2.1100 2.1200 2.1300 2.1400 2.1500
2.1600 2.1700 2.1800 2.1900 2.2000 2.2100 2.2200 2.2300
2.2400 2.2500 2.2600 2.2700 2.2800 2.2900 2.3000 2.3100
2.3200 2.3300 2.3400 2.3500 2.3600 2.3700 2.3800 2.3900
2.4000 2.4100 2.4200 2.4300 2.4400 2.4500 2.4600 2.4700
2.4800 2.4900 2.5000 2.5100 2.5200 2.5300 2.5400 2.5500
2.5600 2.5700 2.5800 2.5900 2.6000 2.6100 2.6200 2.6300
2.6400 2.6500 2.6600 2.6700 2.6800 2.6900 2.7000 2.7100
2.7200 2.7300 2.7400 2.7500 2.7600 2.7700 2.7800 2.7900
2.8000 2.8100 2.8200 2.8300 2.8400 2.8500 2.8600 2.8700
2.8800 2.8900 2.9000 2.9100 2.9200 2.9300 2.9400 2.9500
2.9600 2.9700 2.9800 2.9900 3.0000 3.0100 3.0200 3.0300
3.0400 3.0500 3.0600 3.0700 3.0800 3.0900 3.1000 3.1100
3.1200 3.1300 3.1400 3.1500 3.1600 3.1700 3.1800 3.1900
3.2000 3.2100 3.2200 3.2300 3.2400 3.2500 3.2600 3.2700
3.2800 3.2900 3.3000 3.3100 3.3200 3.3300 3.3400 3.3500
3.3600 3.3700 3.3800 3.3900 3.4000 3.4100 3.4200 3.4300
3.4400 3.4500 3.4600 3.4700 3.4800 3.4900 3.5000 3.5100
3.5200 3.5300 3.5400 3.5500 3.5600 3.5700 3.5800 3.5900
3.6000 3.6100 3.6200 3.6300 3.6400 3.6500 3.6600 3.6700
3.6800 3.6900 3.7000 3.7100 3.7200 3.7300 3.7400 3.7500
3.7600 3.7700 3.7800 3.7900 3.8000 3.8100 3.8200 3.8300
3.8400 3.8500 3.8600 3.8700 3.8800 3.8900 3.9000 3.9100
3.9200 3.9300 3.9400 3.9500 3.9600 3.9700 3.9800 3.9900
4.0000 4.0100 4.0200 4.0300 4.0400 4.0500 4.0600 4.0700
4.0800 4.0900 4.1000 4.1100 4.1200 4.1300 4.1400 4.1500
4.1600 4.1700 4.1800 4.1900 4.2000 4.2100 4.2200 4.2300
4.2400 4.2500 4.2600 4.2700 4.2800 4.2900 4.3000 4.3100
4.3200 4.3300 4.3400 4.3500 4.3600 4.3700 4.3800 4.3900
4.4000 4.4100 4.4200 4.4300 4.4400 4.4500 4.4600 4.4700
4.4800 4.4900 4.5000 4.5100 4.5200 4.5300 4.5400 4.5500
4.5600 4.5700 4.5800 4.5900 4.6000 4.6100 4.6200 4.6300
4.6400 4.6500 4.6600 4.6700 4.6800 4.6900 4.7000 4.7100
4.7200 4.7300 4.7400 4.7500 4.7600 4.7700 4.7800 4.7900
4.8000 4.8100 4.8200 4.8300 4.8400 4.8500 4.8600 4.8700
4.8800 4.8900 4.9000 4.9100 4.9200 4.9300 4.9400 4.9500
4.9600 4.9700 4.9800 4.9900 5.0000 5.0100 5.0200 5.0300
5.0400 5.0500 5.0600 5.0700 5.0800 5.0900 5.1000 5.1100
5.1200 5.1300 5.1400 5.1500 5.1600 5.1700 5.1800 5.1900
5.2000 5.2100 5.2200 5.2300 5.2400 5.2500 5.2600 5.2700
5.2800 5.2900 5.3000 5.3100 5.3200 5.3300 5.3400 5.3500
5.3600 5.3700 5.3800 5.3900 5.4000 5.4100 5.4200 5.4300
5.4400 5.4500 5.4600 5.4700 5.4800 5.4900 5.5000 5.5100
5.5200 5.5300 5.5400 5.5500 5.5600 5.5700 5.5800 5.5900
5.6000 5.6100 5.6200 5.6300 5.6400 5.6500 5.6600 5.6700
5.6800 5.6900 5.7000 5.7100 5.7200 5.7300 5.7400 5.7500
5.7600 5.7700 5.7800 5.7900 5.8000 5.8100 5.8200 5.8300
5.8400 5.8500 5.8600 5.8700 5.8800 5.8900 5.9000 5.9100
5.9200 5.9300 5.9400 5.9500 5.9600 5.9700 5.9800 5.9900
6.0000 6.0100 6.0200 6.0300 6.0400 6.0500 6.0600 6.0700
6.0800 6.0900 6.1000 6.1100 6.1200 6.1300 6.1400 6.1500
6.1600 6.1700 6.1800 6.1900 6.2000 6.2100 6.2200 6.2300
6.2400 6.2500 6.2600 6.2700 6.2800 6.2900 6.3000 6.3100
6.3200 6.3300 6.3400 6.3500 6.3600 6.3700 6.3800 6.3900
6.4000 6.4100 6.4200 6.4300 6.4400 6.4500 6.4600 6.4700
6.4800 6.4900 6.5000 6.5100 6.5200 6.5300 6.5400 6.5500
6.5600 6.5700 6.5800 6.5900 6.6000 6.6100 6.6200 6.6300
6.6400 6.6500 6.6600 6.6700 6.6800 6.6900 6.7000 6.7100
6.7200 6.7300 6.7400 6.7500 6.7600 6.7700 6.7800 6.7900
6.8000 6.8100 6.8200 6.8300 6.8400 6.8500 6.8600 6.8700
6.8800 6.8900 6.9000 6.9100 6.9200 6.9300 6.9400 6.9500
6.9600 6.9700 6.9800 6.9900 7.0000 7.0100 7.0200 7.0300
7.0400 7.0500 7.0600 7.0700 7.0800 7.0900 7.1000 7.1100
7.1200 7.1300 7.1400 7.1500 7.1600 7.1700 7.1800 7.1900
7.2000 7.2100 7.2200 7.2300 7.2400 7.2500 7.2600 7.2700
7.2800 7.2900 7.3000 7.3100 7.3200 7.3300 7.3400 7.3500
7.3600 7.3700 7.3800 7.3900 7.4000 7.4100 7.4200 7.4300
7.4400 7.4500 7.4600 7.4700 7.4800 7.4900 7.5000 7.5100
7.5200 7.5300 7.5400 7.5500 7.5600 7.5700 7.5800 7.5900
7.6000 7.6100 7.6200 7.6300 7.6400 7.6500 7.6600 7.6700
7.6800 7.6900 7.7000 7.7100 7.7200 7.7300 7.7400 7.7500
7.7600 7.7700 7.7800 7.7900 7.8000 7.8100 7.8200 7.8300
7.8400 7.8500 7.8600 7.8700 7.8800 7.8900 7.9000 7.9100
7.9200 7.9300 7.9400 7.9500 7.9600 7.9700 7.9800 7.9900
8.0000 8.0100 8.0200 8.0300 8.0400 8.0500 8.0600 8.0700
8.0800 8.0900 8.1000 8.1100 8.1200 8.1300 8.1400 8.1500
8.1600 8.1700 8.1800 8.1900 8.2000 8.2100 8.2200 8.2300
8.2400 8.2500 8.2600 8.2700 8.2800 8.2900 8.3000 8.3100
8.3200 8.3300 8.3400 8.3500 8.3600 8.3700 8.3800 8.3900
8.4000 8.4100 8.4200 8.4300 8.4400 8.4500 8.4600 8.4700
8.4800 8.4900 8.5000 8.5100 8.5200 8.5300 8.5400 8.5500
8.5600 8.5700 8.5800 8.5900 8.6000 8.6100 8.6200 8.6300
8.6400 8.6500 8.6600 8.6700 8.6800 8.6900 8.7000 8.7100
8.7200 8.7300 8.7400 8.7500 8.7600 8.7700 8.7800 8.7900
8.8000 8.8100 8.8200 8.8300 8.8400 8.8500 8.8600 8.8700
8.8800 8.8900 8.9000 8.9100 8.9200 8.9300 8.9400 8.9500
8.9600 8.9700 8.9800 8.9900 9.0000 9.0100 9.0200 9.0300
9.0400 9.0500 9.0600 9.0700 9.0800 9.0900 9.1000 9.1100
9.1200 9.1300 9.1400 9.1500 9.1600 9.1700 9.1800 9.1900
9.2000 9.2100 9.2200 9.2300 9.2400 9.2500 9.2600 9.2700
9.2800 9.2900 9.3000 9.3100 9.3200 9.3300 9.3400 9.3500
9.3600 9.3700 9.3800 9.3900 9.4000 9.4100 9.4200 9.4300
9.4400 9.4500 9.4600 9.4700 9.4800 9.4900 9.5000 9.5100
9.5200 9.5300 9.5400 9.5500 9.5600 9.5700 9.5800 9.5900
9.6000 9.6100 9.6200 9.6300 9.6400 9.6500 9.6600 9.6700
9.6800 9.6900 9.7000 9.7100 9.7200 9.7300 9.7400 9.7500
9.7600 9.7700 9.7800 9.7900 9.8000 9.8100 9.8200 9.8300
9.8400 9.8500 9.8600 9.8700 9.8800 9.8900 9.9000 9.9100
9.9200 9.9300 9.9400 9.9500 9.9600 9.9700 9.9800 9.9900
10.0000 10.0100 10.0200 10.0300 10.0400 10.0500 10.0600 10.0700
10.0800 10.0900 10.1000 10.1100 10.1200 10.1300 10.1400 10.1500
10.1600 10.1700 10.1800 10.1900 10.2000 10.2100 10.2200 10.2300
10.2400 10.2500 10.2600 10.2700 10.2800 10.2900 10.3000 10.3100
10.3200 10.3300 10.3400 10.3500 10.3600 10.3700 10.3800 10.3900
10.4000 10.4100 10.4200 10.4300 10.4400 10.4500 10.4600 10.4700
10.4800 10.4900 10.5000 10.5100 10.5200 10.5300 10.5400 10.5500
10.5600 10.5700 10.5800 10.5900 10.6000 10.6100 10.6200 10.6300
10.6400 10.6500 10.6600 10.6700 10.6800 10.6900 10.7000 10.7100
10.7200 10.7300 10.7400 10.7500 10.7600 10.7700 10.7800 10.7900
10.8000 10.8100 10.8200 10.8300 10.8400 10.8500 10.8600 10.8700
10.8800 10.8900 10.9000 10.9100 10.9200 10.9300 10.9400 10.9500
10.9600 10.9700 10.9800 10.9900 11.0000 11.0100 11.0200 11.0300
11.0400 11.0500 11.0600 11.0700 11.0800 11.0900 11.1000 11.1100
11.1200 11.1300 11.1400 11.1500 11.1600 11.1700 11.1800 11.1900
11.2000 11.2100 11.2200 11.2300 11.2400 11.2500 11.2600 11.2700
11.2800 11.2900 11.3000 11.3100 11.3200 11.3300 11.3400 11.3500
11.3600 11.3700 11.3800 11.3900 11.4000 11.4100 11.4200 11.4300
11.4400 11.4500</PP_R><PP_RAB type="real" size="1146" columns="8">
0.0100 0.0100 0.0100 0.0100 0.0100 0.0100 0.0100 0.0100
0.0100 0.0100 0.0100 0.0100 0.0100 0.0100 0.0100 0.0100
0.0100 0.0100 0.0100 0.0100 0.0100 0.0100 0.0100 0.0100
0.0100 0.0100 0.0100 0.0100 0.0100 0.0100 0.0100 0.0100
0.0100 0.0100 0.0100 0.0100 0.0100 0.0100 0.0100 0.0100
0.0100 0.0100 0.0100 0.0100 0.0100 0.0100 0.0100 0.0100
0.0100 0.0100 0.0100 0.0100 0.0100 0.0100 0.0100 0.0100
0.0100 0.0100 0.0100 0.0100 0.0100 0.0100 0.0100 0.0100
0.0100 0.0100 0.0100 0.0100 0.0100 0.0100 0.0100 0.0100
0.0100 0.0100 0.0100 0.0100 0.0100 0.0100 0.0100 0.0100
0.0100 0.0100 0.0100 0.0100 0.0100 0.0100 0.0100 0.0100
0.0100 0.0100 0.0100 0.0100 0.0100 0.0100 0.0100 0.0100
0.0100 0.0100 0.0100 0.0100 0.0100 0.0100 0.0100 0.0100
0.0100 0.0100 0.0100 0.0100 0.0100 0.0100 0.0100 0.0100
0.0100 0.0100 0.0100 0.0100 0.0100 0.0100 0.0100 0.0100
0.0100 0.0100 0.0100 0.0100 0.0100 0.0100 0.0100 0.0100
0.0100 0.0100 0.0100 0.0100 0.0100 0.0100 0.0100 0.0100
0.0100 0.0100 0.0100 0.0100 0.0100 0.0100 0.0100 0.0100
0.0100 0.0100 0.0100 0.0100 0.0100 0.0100 0.0100 0.0100
0.0100 0.0100 0.0100 0.0100 0.0100 0.0100 0.0100 0.0100
0.0100 0.0100 0.0100 0.0100 0.0100 0.0100 0.0100 0.0100
0.0100 0.0100 0.0100 0.0100 0.0100 0.0100 0.0100 0.0100
0.0100 0.0100 0.0100 0.0100 0.0100 0.0100 0.0100 0.0100
0.0100 0.0100 0.0100 0.0100 0.0100 0.0100 0.0100 0.0100
0.0100 0.0100 0.0100 0.0100 0.0100 0.0100 0.0100 0.0100
0.0100 0.0100 0.0100 0.0100 0.0100 0.0100 0.0100 0.0100
0.0100 0.0100 0.0100 0.0100 0.0100 0.0100 0.0100 0.0100
0.0100 0.0100 0.0100 0.0100 0.0100 0.0100 0.0100 0.0100
0.0100 0.0100 0.0100 0.0100 0.0100 0.0100 0.0100 0.0100
0.0100 0.0100 0.0100 0.0100 0.0100 0.0100 0.0100 0.0100
0.0100 0.0100 0.0100 0.0100 0.0100 0.0100 0.0100 0.0100
0.0100 0.0100 0.0100 0.0100 0.0100 0.0100 0.0100 0.0100
0.0100 0.0100 0.0100 0.0100 0.0100 0.0100 0.0100 0.0100
0.0100 0.0100 0.0100 0.0100 0.0100 0.0100 0.0100 0.0100
0.0100 0.0100 0.0100 0.0100 0.0100 0.0100 0.0100 0.0100
0.0100 0.0100 0.0100 0.0100 0.0100 0.0100 0.0100 0.0100
0.0100 0.0100 0.0100 0.0100 0.0100 0.0100 0.0100 0.0100
0.0100 0.0100 0.0100 0.0100 0.0100 0.0100 0.0100 0.0100
0.0100 0.0100 0.0100 0.0100 0.0100 0.0100 0.0100 0.0100
0.0100 0.0100 0.0100 0.0100 0.0100 0.0100 0.0100 0.0100
0.0100 0.0100 0.0100 0.0100 0.0100 0.0100 0.0100 0.0100
0.0100 0.0100 0.0100 0.0100 0.0100 0.0100 0.0100 0.0100
0.0100 0.0100 0.0100 0.0100 0.0100 0.0100 0.0100 0.0100
0.0100 0.0100 0.0100 0.0100 0.0100 0.0100 0.0100 0.0100
0.0100 0.0100 0.0100 0.0100 0.0100 0.0100 0.0100 0.0100
0.0100 0.0100 0.0100 0.0100 0.0100 0.0100 0.0100 0.0100
0.0100 0.0100 0.0100 0.0100 0.0100 0.0100 0.0100 0.0100
0.0100 0.0100 0.0100 0.0100 0.0100 0.0100 0.0100 0.0100
0.0100 0.0100 0.0100 0.0100 0.0100 0.0100 0.0100 0.0100
0.0100 0.0100 0.0100 0.0100 0.0100 0.0100 0.0100 0.0100
0.0100 0.0100 0.0100 0.0100 0.0100 0.0100 0.0100 0.0100
0.0100 0.0100 0.0100 0.0100 0.0100 0.0100 0.0100 0.0100
0.0100 0.0100 0.0100 0.0100 0.0100 0.0100 0.0100 0.0100
0.0100 0.0100 0.0100 0.0100 0.0100 0.0100 0.0100 0.0100
0.0100 0.0100 0.0100 0.0100 0.0100 0.0100 0.0100 0.0100
0.0100 0.0100 0.0100 0.0100 0.0100 0.0100 0.0100 0.0100
0.0100 0.0100 0.0100 0.0100 0.0100 0.0100 0.0100 0.0100
0.0100 0.0100 0.0100 0.0100 0.0100 0.0100 0.0100 0.0100
0.0100 0.0100 0.0100 0.0100 0.0100 0.0100 0.0100 0.0100
0.0100 0.0100 0.0100 0.0100 0.0100 0.0100 0.0100 0.0100
0.0100 0.0100 0.0100 0.0100 0.0100 0.0100 0.0100 0.0100
0.0100 0.0100 0.0100 0.0100 0.0100 0.0100 0.0100 0.0100
0.0100 0.0100 0.0100 0.0100 0.0100 0.0100 0.0100 0.0100
0.0100 0.0100 0.0100 0.0100 0.0100 0.0100 0.0100 0.0100
0.0100 0.0100 0.0100 0.0100 0.0100 0.0100 0.0100 0.0100
0.0100 0.0100 0.0100 0.0100 0.0100 0.0100 0.0100 0.0100
0.0100 0.0100 0.0100 0.0100 0.0100 0.0100 0.0100 0.0100
0.0100 0.0100 0.0100 0.0100 0.0100 0.0100 0.0100 0.0100
0.0100 0.0100 0.0100 0.0100 0.0100 0.0100 0.0100 0.0100
0.0100 0.0100 0.0100 0.0100 0.0100 0.0100 0.0100 0.0100
0.0100 0.0100 0.0100 0.0100 0.0100 0.0100 0.0100 0.0100
0.0100 0.0100 0.0100 0.0100 0.0100 0.0100 0.0100 0.0100
0.0100 0.0100 0.0100 0.0100 0.0100 0.0100 0.0100 0.0100
0.0100 0.0100 0.0100 0.0100 0.0100 0.0100 0.0100 0.0100
0.0100 0.0100 0.0100 0.0100 0.0100 0.0100 0.0100 0.0100
0.0100 0.0100 0.0100 0.0100 0.0100 0.0100 0.0100 0.0100
0.0100 0.0100 0.0100 0.0100 0.0100 0.0100 0.0100 0.0100
0.0100 0.0100 0.0100 0.0100 0.0100 0.0100 0.0100 0.0100
0.0100 0.0100 0.0100 0.0100 0.0100 0.0100 0.0100 0.0100
0.0100 0.0100 0.0100 0.0100 0.0100 0.0100 0.0100 0.0100
0.0100 0.0100 0.0100 0.0100 0.0100 0.0100 0.0100 0.0100
0.0100 0.0100 0.0100 0.0100 0.0100 0.0100 0.0100 0.0100
0.0100 0.0100 0.0100 0.0100 0.0100 0.0100 0.0100 0.0100
0.0100 0.0100 0.0100 0.0100 0.0100 0.0100 0.0100 0.0100
0.0100 0.0100 0.0100 0.0100 0.0100 0.0100 0.0100 0.0100
0.0100 0.0100 0.0100 0.0100 0.0100 0.0100 0.0100 0.0100
0.0100 0.0100 0.0100 0.0100 0.0100 0.0100 0.0100 0.0100
0.0100 0.0100 0.0100 0.0100 0.0100 0.0100 0.0100 0.0100
0.0100 0.0100 0.0100 0.0100 0.0100 0.0100 0.0100 0.0100
0.0100 0.0100 0.0100 0.0100 0.0100 0.0100 0.0100 0.0100
0.0100 0.0100 0.0100 0.0100 0.0100 0.0100 0.0100 0.0100
0.0100 0.0100 0.0100 0.0100 0.0100 0.0100 0.0100 0.0100
0.0100 0.0100 0.0100 0.0100 0.0100 0.0100 0.0100 0.0100
0.0100 0.0100 0.0100 0.0100 0.0100 0.0100 0.0100 0.0100
0.0100 0.0100 0.0100 0.0100 0.0100 0.0100 0.0100 0.0100
0.0100 0.0100 0.0100 0.0100 0.0100 0.0100 0.0100 0.0100
0.0100 0.0100 0.0100 0.0100 0.0100 0.0100 0.0100 0.0100
0.0100 0.0100 0.0100 0.0100 0.0100 0.0100 0.0100 0.0100
0.0100 0.0100 0.0100 0.0100 0.0100 0.0100 0.0100 0.0100
0.0100 0.0100 0.0100 0.0100 0.0100 0.0100 0.0100 0.0100
0.0100 0.0100 0.0100 0.0100 0.0100 0.0100 0.0100 0.0100
0.0100 0.0100 0.0100 0.0100 0.0100 0.0100 0.0100 0.0100
0.0100 0.0100 0.0100 0.0100 0.0100 0.0100 0.0100 0.0100
0.0100 0.0100 0.0100 0.0100 0.0100 0.0100 0.0100 0.0100
0.0100 0.0100 0.0100 0.0100 0.0100 0.0100 0.0100 0.0100
0.0100 0.0100 0.0100 0.0100 0.0100 0.0100 0.0100 0.0100
0.0100 0.0100 0.0100 0.0100 0.0100 0.0100 0.0100 0.0100
0.0100 0.0100 0.0100 0.0100 0.0100 0.0100 0.0100 0.0100
0.0100 0.0100 0.0100 0.0100 0.0100 0.0100 0.0100 0.0100
0.0100 0.0100 0.0100 0.0100 0.0100 0.0100 0.0100 0.0100
0.0100 0.0100 0.0100 0.0100 0.0100 0.0100 0.0100 0.0100
0.0100 0.0100 0.0100 0.0100 0.0100 0.0100 0.0100 0.0100
0.0100 0.0100 0.0100 0.0100 0.0100 0.0100 0.0100 0.0100
0.0100 0.0100 0.0100 0.0100 0.0100 0.0100 0.0100 0.0100
0.0100 0.0100 0.0100 0.0100 0.0100 0.0100 0.0100 0.0100
0.0100 0.0100 0.0100 0.0100 0.0100 0.0100 0.0100 0.0100
0.0100 0.0100 0.0100 0.0100 0.0100 0.0100 0.0100 0.0100
0.0100 0.0100 0.0100 0.0100 0.0100 0.0100 0.0100 0.0100
0.0100 0.0100 0.0100 0.0100 0.0100 0.0100 0.0100 0.0100
0.0100 0.0100 0.0100 0.0100 0.0100 0.0100 0.0100 0.0100
0.0100 0.0100 0.0100 0.0100 0.0100 0.0100 0.0100 0.0100
0.0100 0.0100 0.0100 0.0100 0.0100 0.0100 0.0100 0.0100
0.0100 0.0100 0.0100 0.0100 0.0100 0.0100 0.0100 0.0100
0.0100 0.0100 0.0100 0.0100 0.0100 0.0100 0.0100 0.0100
0.0100 0.0100 0.0100 0.0100 0.0100 0.0100 0.0100 0.0100
0.0100 0.0100 0.0100 0.0100 0.0100 0.0100 0.0100 0.0100
0.0100 0.0100 0.0100 0.0100 0.0100 0.0100 0.0100 0.0100
0.0100 0.0100 0.0100 0.0100 0.0100 0.0100 0.0100 0.0100
0.0100 0.0100 0.0100 0.0100 0.0100 0.0100 0.0100 0.0100
0.0100 0.0100 0.0100 0.0100 0.0100 0.0100 0.0100 0.0100
0.0100 0.0100 0.0100 0.0100 0.0100 0.0100 0.0100 0.0100
0.0100 0.0100 0.0100 0.0100 0.0100 0.0100 0.0100 0.0100
0.0100 0.0100 0.0100 0.0100 0.0100 0.0100 0.0100 0.0100
0.0100 0.0100 0.0100 0.0100 0.0100 0.0100 0.0100 0.0100
0.0100 0.0100 0.0100 0.0100 0.0100 0.0100 0.0100 0.0100
0.0100 0.0100 0.0100 0.0100 0.0100 0.0100 0.0100 0.0100
0.0100 0.0100 0.0100 0.0100 0.0100 0.0100 0.0100 0.0100
0.0100 0.0100 0.0100 0.0100 0.0100 0.0100 0.0100 0.0100
0.0100 0.0100 0.0100 0.0100 0.0100 0.0100 0.0100 0.0100
0.0100 0.0100 0.0100 0.0100 0.0100 0.0100 0.0100 0.0100
0.0100 0.0100 0.0100 0.0100 0.0100 0.0100 0.0100 0.0100
0.0100 0.0100 0.0100 0.0100 0.0100 0.0100 0.0100 0.0100
0.0100 0.0100 0.0100 0.0100 0.0100 0.0100 0.0100 0.0100
0.0100 0.0100</PP_RAB></PP_MESH><PP_LOCAL type="real" size="1146" columns="4">
-4.0873246188E+01 -4.0872623873E+01 -4.0870756653E+01 -4.0867643751E+01
-4.0863283838E+01 -4.0857675018E+01 -4.0850814772E+01 -4.0842699918E+01
-4.0833326541E+01 -4.0822689930E+01 -4.0810784500E+01 -4.0797603720E+01
-4.0783140027E+01 -4.0767384751E+01 -4.0750328040E+01 -4.0731958784E+01
-4.0712264555E+01 -4.0691231544E+01 -4.0668844518E+01 -4.0645086785E+01
-4.0619940164E+01 -4.0593384982E+01 -4.0565400076E+01 -4.0535962806E+01
-4.0505049096E+01 -4.0472633476E+01 -4.0438689140E+01 -4.0403188026E+01
-4.0366100895E+01 -4.0327397431E+01 -4.0287046345E+01 -4.0245015487E+01
-4.0201271968E+01 -4.0155782280E+01 -4.0108512433E+01 -4.0059428076E+01
-4.0008494636E+01 -3.9955677443E+01 -3.9900941868E+01 -3.9844253447E+01
-3.9785578010E+01 -3.9724881809E+01 -3.9662131638E+01 -3.9597294954E+01
-3.9530339999E+01 -3.9461235914E+01 -3.9389952857E+01 -3.9316462115E+01
-3.9240736220E+01 -3.9162749060E+01 -3.9082475989E+01 -3.8999893943E+01
-3.8914981549E+01 -3.8827719234E+01 -3.8738089339E+01 -3.8646076225E+01
-3.8551666387E+01 -3.8454848557E+01 -3.8355613814E+01 -3.8253955688E+01
-3.8149870259E+01 -3.8043356259E+01 -3.7934415166E+01 -3.7823051288E+01
-3.7709271852E+01 -3.7593087074E+01 -3.7474510229E+01 -3.7353557702E+01
-3.7230249037E+01 -3.7104606966E+01 -3.6976657429E+01 -3.6846429574E+01
-3.6713955749E+01 -3.6579271465E+01 -3.6442415357E+01 -3.6303429117E+01
-3.6162357412E+01 -3.6019247790E+01 -3.5874150561E+01 -3.5727118674E+01
-3.5578207569E+01 -3.5427475021E+01 -3.5274980978E+01 -3.5120787378E+01
-3.4964957968E+01 -3.4807558111E+01 -3.4648654593E+01 -3.4488315422E+01
-3.4326609633E+01 -3.4163607088E+01 -3.3999378280E+01 -3.3833994141E+01
-3.3667525852E+01 -3.3500044662E+01 -3.3331621707E+01 -3.3162327846E+01
-3.2992233491E+01 -3.2821408455E+01 -3.2649921801E+01 -3.2477841705E+01
-3.2305235317E+01 -3.2132168642E+01 -3.1958706416E+01 -3.1784912001E+01
-3.1610847277E+01 -3.1436572552E+01 -3.1262146470E+01 -3.1087625929E+01
-3.0913066014E+01 -3.0738519925E+01 -3.0564038925E+01 -3.0389672288E+01
-3.0215467264E+01 -3.0041469043E+01 -2.9867720741E+01 -2.9694263387E+01
-2.9521135926E+01 -2.9348375233E+01 -2.9176016138E+01 -2.9004091460E+01
-2.8832632060E+01 -2.8661666897E+01 -2.8491223099E+01 -2.8321326040E+01
-2.8151999427E+01 -2.7983265386E+01 -2.7815144558E+01 -2.7647656185E+01
-2.7480818202E+01 -2.7314647314E+01 -2.7149159066E+01 -2.6984367905E+01
-2.6820287223E+01 -2.6656929394E+01 -2.6494305789E+01 -2.6332426790E+01
-2.6171301796E+01 -2.6010939228E+01 -2.5851346546E+01 -2.5692530277E+01
-2.5534496080E+01 -2.5377248840E+01 -2.5220792805E+01 -2.5065131790E+01
-2.4910269421E+01 -2.4756209450E+01 -2.4602956118E+01 -2.4450514562E+01
-2.4298891258E+01 -2.4148094466E+01 -2.3998134671E+01 -2.3849024978E+01
-2.3700781443E+01 -2.3553423309E+01 -2.3406973132E+01 -2.3261456762E+01
-2.3116903201E+01 -2.2973344298E+01 -2.2830814325E+01 -2.2689349430E+01
-2.2548986994E+01 -2.2409764934E+01 -2.2271720963E+01 -2.2134891870E+01
-2.1999312819E+01 -2.1865016726E+01 -2.1732033705E+01 -2.1600390634E+01
-2.1470110801E+01 -2.1341213685E+01 -2.1213714824E+01 -2.1087625771E+01
-2.0962954129E+01 -2.0839703688E+01 -2.0717874534E+01 -2.0597463353E+01
-2.0478463742E+01 -2.0360865942E+01 -2.0244657370E+01 -2.0129821896E+01
-2.0016338513E+01 -1.9904183577E+01 -1.9793332122E+01 -1.9683759256E+01
-1.9575442771E+01 -1.9468363029E+01 -1.9362501273E+01 -1.9257838965E+01
-1.9154357844E+01 -1.9052039257E+01 -1.8950864649E+01 -1.8850816136E+01
-1.8751876124E+01 -1.8654027193E+01 -1.8557252193E+01 -1.8461534368E+01
-1.8366857324E+01 -1.8273204715E+01 -1.8180560445E+01 -1.8088907899E+01
-1.7998229134E+01 -1.7908505270E+01 -1.7819716720E+01 -1.7731843459E+01
-1.7644865945E+01 -1.7558766979E+01 -1.7473530520E+01 -1.7389141659E+01
-1.7305586260E+01 -1.7222850651E+01 -1.7140920344E+01 -1.7059780973E+01
-1.6979418496E+01 -1.6899819268E+01 -1.6820969890E+01 -1.6742857345E+01
-1.6665469050E+01 -1.6588792706E+01 -1.6512816392E+01 -1.6437528896E+01
-1.6362920334E+01 -1.6288981628E+01 -1.6215704419E+01 -1.6143081028E+01
-1.6071103927E+01 -1.5999764928E+01 -1.5929055265E+01 -1.5858965967E+01
-1.5789487892E+01 -1.5720611922E+01 -1.5652329202E+01 -1.5584631683E+01
-1.5517511587E+01 -1.5450961344E+01 -1.5384973503E+01 -1.5319540846E+01
-1.5254656254E+01 -1.5190312749E+01 -1.5126503500E+01 -1.5063221937E+01
-1.5000461653E+01 -1.4938216408E+01 -1.4876480069E+01 -1.4815246655E+01
-1.4754510313E+01 -1.4694265324E+01 -1.4634506089E+01 -1.4575227117E+01
-1.4516423026E+01 -1.4458088532E+01 -1.4400218446E+01 -1.4342807664E+01
-1.4285851165E+01 -1.4229344005E+01 -1.4173281311E+01 -1.4117658273E+01
-1.4062470148E+01 -1.4007712245E+01 -1.3953379930E+01 -1.3899468619E+01
-1.3845973771E+01 -1.3792890892E+01 -1.3740215528E+01 -1.3687943265E+01
-1.3636069723E+01 -1.3584590560E+01 -1.3533501466E+01 -1.3482798167E+01
-1.3432476417E+01 -1.3382532006E+01 -1.3332960753E+01 -1.3283758511E+01
-1.3234921163E+01 -1.3186444626E+01 -1.3138324852E+01 -1.3090557825E+01
-1.3043139566E+01 -1.2996066134E+01 -1.2949333623E+01 -1.2902938170E+01
-1.2856875951E+01 -1.2811143185E+01 -1.2765736138E+01 -1.2720651117E+01
-1.2675884481E+01 -1.2631432634E+01 -1.2587292034E+01 -1.2543459187E+01
-1.2499930654E+01 -1.2456703050E+01 -1.2413773045E+01 -1.2371137365E+01
-1.2328792792E+01 -1.2286736165E+01 -1.2244964382E+01 -1.2203474399E+01
-1.2162263229E+01 -1.2121327942E+01 -1.2080665669E+01 -1.2040273594E+01
-1.2000148960E+01 -1.1960289066E+01 -1.1920691263E+01 -1.1881352959E+01
-1.1842271612E+01 -1.1803444731E+01 -1.1764869874E+01 -1.1726544648E+01
-1.1688466706E+01 -1.1650633741E+01 -1.1613043494E+01 -1.1575693741E+01
-1.1538582298E+01 -1.1501707017E+01 -1.1465065783E+01 -1.1428656514E+01
-1.1392477155E+01 -1.1356525681E+01 -1.1320800091E+01 -1.1285298410E+01
-1.1250018681E+01 -1.1214958970E+01 -1.1180117361E+01 -1.1145491953E+01
-1.1111080863E+01 -1.1076882221E+01 -1.1042894168E+01 -1.1009114861E+01
-1.0975542464E+01 -1.0942175153E+01 -1.0909011116E+01 -1.0876048547E+01
-1.0843285651E+01 -1.0810720641E+01 -1.0778351740E+01 -1.0746177179E+01
-1.0714195201E+01 -1.0682404055E+01 -1.0650802004E+01 -1.0619387319E+01
-1.0588158285E+01 -1.0557113196E+01 -1.0526250363E+01 -1.0495568109E+01
-1.0465064770E+01 -1.0434738702E+01 -1.0404588273E+01 -1.0374611872E+01
-1.0344807904E+01 -1.0315174794E+01 -1.0285710986E+01 -1.0256414945E+01
-1.0227285171E+01 -1.0198320164E+01 -1.0169518432E+01 -1.0140878523E+01
-1.0112398984E+01 -1.0084078397E+01 -1.0055915534E+01 -1.0027909103E+01
-1.0000057810E+01 -9.9723605055E+00 -9.9448155881E+00 -9.9174216115E+00
-9.8901771362E+00 -9.8630807380E+00 -9.8361310860E+00 -9.8093269312E+00
-9.7826671150E+00 -9.7561504866E+00 -9.7297760447E+00 -9.7035432891E+00
-9.6774515673E+00 -9.6515002259E+00 -9.6256888725E+00 -9.6000162982E+00
-9.5744814096E+00 -9.5490830582E+00 -9.5238200092E+00 -9.4986909949E+00
-9.4736947579E+00 -9.4488300242E+00 -9.4240955463E+00 -9.3994899564E+00
-9.3750123289E+00 -9.3506616858E+00 -9.3264370764E+00 -9.3023376234E+00
-9.2783624618E+00 -9.2545105622E+00 -9.2307809855E+00 -9.2071727964E+00
-9.1836850516E+00 -9.1603168370E+00 -9.1370672488E+00 -9.1139353842E+00
-9.0909203488E+00 -9.0680212510E+00 -9.0452372217E+00 -9.0225673960E+00
-9.0000109175E+00 -8.9775669392E+00 -8.9552346230E+00 -8.9330131364E+00
-8.9109016565E+00 -8.8888993684E+00 -8.8670054653E+00 -8.8452191482E+00
-8.8235396262E+00 -8.8019661159E+00 -8.7804978418E+00 -8.7591340356E+00
-8.7378739367E+00 -8.7167167919E+00 -8.6956618550E+00 -8.6747083873E+00
-8.6538556570E+00 -8.6331029395E+00 -8.6124495170E+00 -8.5918946785E+00
-8.5714377199E+00 -8.5510779438E+00 -8.5308146592E+00 -8.5106471820E+00
-8.4905748341E+00 -8.4705969442E+00 -8.4507128471E+00 -8.4309218838E+00
-8.4112234015E+00 -8.3916167536E+00 -8.3721012993E+00 -8.3526764040E+00
-8.3333414386E+00 -8.3140957803E+00 -8.2949388117E+00 -8.2758699211E+00
-8.2568885026E+00 -8.2379939556E+00 -8.2191856851E+00 -8.2004631017E+00
-8.1818256210E+00 -8.1632726642E+00 -8.1448036576E+00 -8.1264180327E+00
-8.1081152261E+00 -8.0898946795E+00 -8.0717558397E+00 -8.0536981582E+00
-8.0357210915E+00 -8.0178241012E+00 -8.0000066533E+00 -7.9822682188E+00
-7.9646082733E+00 -7.9470262969E+00 -7.9295217745E+00 -7.9120941954E+00
-7.8947430534E+00 -7.8774678468E+00 -7.8602680781E+00 -7.8431432544E+00
-7.8260928867E+00 -7.8091164908E+00 -7.7922135861E+00 -7.7753836966E+00
-7.7586263502E+00 -7.7419410788E+00 -7.7253274185E+00 -7.7087849092E+00
-7.6923130949E+00 -7.6759115234E+00 -7.6595797463E+00 -7.6433173190E+00
-7.6271238009E+00 -7.6109987548E+00 -7.5949417473E+00 -7.5789523489E+00
-7.5630301333E+00 -7.5471746781E+00 -7.5313855643E+00 -7.5156623763E+00
-7.5000047021E+00 -7.4844121332E+00 -7.4688842642E+00 -7.4534206935E+00
-7.4380210223E+00 -7.4226848555E+00 -7.4074118011E+00 -7.3922014703E+00
-7.3770534774E+00 -7.3619674401E+00 -7.3469429791E+00 -7.3319797180E+00
-7.3170772838E+00 -7.3022353063E+00 -7.2874534183E+00 -7.2727312558E+00
-7.2580684573E+00 -7.2434646647E+00 -7.2289195223E+00 -7.2144326778E+00
-7.2000037812E+00 -7.1856324855E+00 -7.1713184465E+00 -7.1570613228E+00
-7.1428607756E+00 -7.1287164687E+00 -7.1146280687E+00 -7.1005952448E+00
-7.0866176687E+00 -7.0726950150E+00 -7.0588269604E+00 -7.0450131845E+00
-7.0312533691E+00 -7.0175471988E+00 -7.0038943605E+00 -6.9902945434E+00
-6.9767474392E+00 -6.9632527422E+00 -6.9498101488E+00 -6.9364193577E+00
-6.9230800703E+00 -6.9097919897E+00 -6.8965548219E+00 -6.8833682747E+00
-6.8702320583E+00 -6.8571458850E+00 -6.8441094696E+00 -6.8311225287E+00
-6.8181847812E+00 -6.8052959481E+00 -6.7924557526E+00 -6.7796639198E+00
-6.7669201771E+00 -6.7542242536E+00 -6.7415758809E+00 -6.7289747922E+00
-6.7164207229E+00 -6.7039134104E+00 -6.6914525938E+00 -6.6790380143E+00
-6.6666694152E+00 -6.6543465414E+00 -6.6420691398E+00 -6.6298369592E+00
-6.6176497502E+00 -6.6055072652E+00 -6.5934092586E+00 -6.5813554862E+00
-6.5693457061E+00 -6.5573796778E+00 -6.5454571626E+00 -6.5335779236E+00
-6.5217417257E+00 -6.5099483353E+00 -6.4981975205E+00 -6.4864890513E+00
-6.4748226992E+00 -6.4631982373E+00 -6.4516154403E+00 -6.4400740848E+00
-6.4285739486E+00 -6.4171148114E+00 -6.4056964542E+00 -6.3943186598E+00
-6.3829812125E+00 -6.3716838978E+00 -6.3604265033E+00 -6.3492088175E+00
-6.3380306308E+00 -6.3268917350E+00 -6.3157919232E+00 -6.3047309900E+00
-6.2937087316E+00 -6.2827249455E+00 -6.2717794306E+00 -6.2608719872E+00
-6.2500024169E+00 -6.2391705230E+00 -6.2283761098E+00 -6.2176189832E+00
-6.2068989502E+00 -6.1962158193E+00 -6.1855694004E+00 -6.1749595044E+00
-6.1643859438E+00 -6.1538485322E+00 -6.1433470846E+00 -6.1328814171E+00
-6.1224513472E+00 -6.1120566936E+00 -6.1016972762E+00 -6.0913729161E+00
-6.0810834357E+00 -6.0708286585E+00 -6.0606084092E+00 -6.0504225137E+00
-6.0402707992E+00 -6.0301530938E+00 -6.0200692269E+00 -6.0100190290E+00
-6.0000023319E+00 -5.9900189682E+00 -5.9800687719E+00 -5.9701515779E+00
-5.9602672224E+00 -5.9504155424E+00 -5.9405963762E+00 -5.9308095631E+00
-5.9210549435E+00 -5.9113323588E+00 -5.9016416515E+00 -5.8919826649E+00
-5.8823552437E+00 -5.8727592332E+00 -5.8631944802E+00 -5.8536608320E+00
-5.8441581373E+00 -5.8346862454E+00 -5.8252450068E+00 -5.8158342731E+00
-5.8064538966E+00 -5.7971037306E+00 -5.7877836294E+00 -5.7784934482E+00
-5.7692330433E+00 -5.7600022716E+00 -5.7508009912E+00 -5.7416290609E+00
-5.7324863406E+00 -5.7233726908E+00 -5.7142879733E+00 -5.7052320504E+00
-5.6962047854E+00 -5.6872060426E+00 -5.6782356869E+00 -5.6692935843E+00
-5.6603796015E+00 -5.6514936060E+00 -5.6426354662E+00 -5.6338050514E+00
-5.6250022316E+00 -5.6162268777E+00 -5.6074788612E+00 -5.5987580547E+00
-5.5900643314E+00 -5.5813975654E+00 -5.5727576314E+00 -5.5641444050E+00
-5.5555577626E+00 -5.5469975813E+00 -5.5384637389E+00 -5.5299561142E+00