<UPF version="2.0.1"><PP_INFO>This pseudopotential file has been produced using the code
ONCVPSP (Optimized Norm-Conservinng Vanderbilt PSeudopotential)
scalar-relativistic version 3.3.0 08/16/2017 by D. R. Hamann
The code is available through a link at URL www.mat-simresearch.com.
Documentation with the package provides a full discription of the
input data below.
While it is not required under the terms of the GNU GPL, it is
suggested that you cite D. R. Hamann, Phys. Rev. B 88, 085117 (2013)
in any publication using these pseudopotentials.<PP_INPUTFILE>
# ATOM AND REFERENCE CONFIGURATION
# atsym z nc nv iexc psfile
Se 34.00 5 3 -116133 upf
#
# n l f energy (Ha)
1 0 2.00
2 0 2.00
2 1 6.00
3 0 2.00
3 1 6.00
3 2 10.00
4 0 2.00
4 1 4.00
#
# PSEUDOPOTENTIAL AND OPTIMIZATION
# lmax
2
#
# l, rc, ep, ncon, nbas, qcut
0 1.80000 -0.63547 4 8 5.40000
1 1.50000 -0.23925 4 8 7.80000
2 1.90000 -1.95211 4 9 9.20000
#
# LOCAL POTENTIAL
# lloc, lpopt, rc(5), dvloc0
4 5 1.50000 0.00000
#
# VANDERBILT-KLEINMAN-BYLANDER PROJECTORs
# l, nproj, debl
0 2 4.50000
1 2 4.50000
2 2 2.00000
#
# MODEL CORE CHARGE
# icmod, fcfact, rcfact
3 5.00000 1.40000
#
# LOG DERIVATIVE ANALYSIS
# epsh1, epsh2, depsh
-12.00 12.00 0.02
#
# OUTPUT GRID
# rlmax, drl
6.00 0.01
#
# TEST CONFIGURATIONS
# ncnf
0
# nvcnf
# n l f</PP_INPUTFILE></PP_INFO><PP_HEADER generated="Generated using ONCVPSP code by D. R. Hamann" author="anonymous" date="180301" comment="" element="Se" pseudo_type="NC" relativistic="scalar" is_ultrasoft="F" is_paw="F" is_coulomb="F" has_so="F" has_wfc="F" has_gipaw="F" core_correction="T" functional="PBESOL" z_valence="   16.00" total_psenergy="  -2.22516142450E+02" rho_cutoff="   1.19700000000E+01" l_max="2" l_local="-1" mesh_size="  1198" number_of_wfc="3" number_of_proj="6"/><PP_MESH><PP_R type="real" size="1198" columns="8">
0.0000 0.0100 0.0200 0.0300 0.0400 0.0500 0.0600 0.0700
0.0800 0.0900 0.1000 0.1100 0.1200 0.1300 0.1400 0.1500
0.1600 0.1700 0.1800 0.1900 0.2000 0.2100 0.2200 0.2300
0.2400 0.2500 0.2600 0.2700 0.2800 0.2900 0.3000 0.3100
0.3200 0.3300 0.3400 0.3500 0.3600 0.3700 0.3800 0.3900
0.4000 0.4100 0.4200 0.4300 0.4400 0.4500 0.4600 0.4700
0.4800 0.4900 0.5000 0.5100 0.5200 0.5300 0.5400 0.5500
0.5600 0.5700 0.5800 0.5900 0.6000 0.6100 0.6200 0.6300
0.6400 0.6500 0.6600 0.6700 0.6800 0.6900 0.7000 0.7100
0.7200 0.7300 0.7400 0.7500 0.7600 0.7700 0.7800 0.7900
0.8000 0.8100 0.8200 0.8300 0.8400 0.8500 0.8600 0.8700
0.8800 0.8900 0.9000 0.9100 0.9200 0.9300 0.9400 0.9500
0.9600 0.9700 0.9800 0.9900 1.0000 1.0100 1.0200 1.0300
1.0400 1.0500 1.0600 1.0700 1.0800 1.0900 1.1000 1.1100
1.1200 1.1300 1.1400 1.1500 1.1600 1.1700 1.1800 1.1900
1.2000 1.2100 1.2200 1.2300 1.2400 1.2500 1.2600 1.2700
1.2800 1.2900 1.3000 1.3100 1.3200 1.3300 1.3400 1.3500
1.3600 1.3700 1.3800 1.3900 1.4000 1.4100 1.4200 1.4300
1.4400 1.4500 1.4600 1.4700 1.4800 1.4900 1.5000 1.5100
1.5200 1.5300 1.5400 1.5500 1.5600 1.5700 1.5800 1.5900
1.6000 1.6100 1.6200 1.6300 1.6400 1.6500 1.6600 1.6700
1.6800 1.6900 1.7000 1.7100 1.7200 1.7300 1.7400 1.7500
1.7600 1.7700 1.7800 1.7900 1.8000 1.8100 1.8200 1.8300
1.8400 1.8500 1.8600 1.8700 1.8800 1.8900 1.9000 1.9100
1.9200 1.9300 1.9400 1.9500 1.9600 1.9700 1.9800 1.9900
2.0000 2.0100 2.0200 2.0300 2.0400 2.0500 2.0600 2.0700
2.0800 2.0900 2.1000 2.1100 2.1200 2.1300 2.1400 2.1500
2.1600 2.1700 2.1800 2.1900 2.2000 2.2100 2.2200 2.2300
2.2400 2.2500 2.2600 2.2700 2.2800 2.2900 2.3000 2.3100
2.3200 2.3300 2.3400 2.3500 2.3600 2.3700 2.3800 2.3900
2.4000 2.4100 2.4200 2.4300 2.4400 2.4500 2.4600 2.4700
2.4800 2.4900 2.5000 2.5100 2.5200 2.5300 2.5400 2.5500
2.5600 2.5700 2.5800 2.5900 2.6000 2.6100 2.6200 2.6300
2.6400 2.6500 2.6600 2.6700 2.6800 2.6900 2.7000 2.7100
2.7200 2.7300 2.7400 2.7500 2.7600 2.7700 2.7800 2.7900
2.8000 2.8100 2.8200 2.8300 2.8400 2.8500 2.8600 2.8700
2.8800 2.8900 2.9000 2.9100 2.9200 2.9300 2.9400 2.9500
2.9600 2.9700 2.9800 2.9900 3.0000 3.0100 3.0200 3.0300
3.0400 3.0500 3.0600 3.0700 3.0800 3.0900 3.1000 3.1100
3.1200 3.1300 3.1400 3.1500 3.1600 3.1700 3.1800 3.1900
3.2000 3.2100 3.2200 3.2300 3.2400 3.2500 3.2600 3.2700
3.2800 3.2900 3.3000 3.3100 3.3200 3.3300 3.3400 3.3500
3.3600 3.3700 3.3800 3.3900 3.4000 3.4100 3.4200 3.4300
3.4400 3.4500 3.4600 3.4700 3.4800 3.4900 3.5000 3.5100
3.5200 3.5300 3.5400 3.5500 3.5600 3.5700 3.5800 3.5900
3.6000 3.6100 3.6200 3.6300 3.6400 3.6500 3.6600 3.6700
3.6800 3.6900 3.7000 3.7100 3.7200 3.7300 3.7400 3.7500
3.7600 3.7700 3.7800 3.7900 3.8000 3.8100 3.8200 3.8300
3.8400 3.8500 3.8600 3.8700 3.8800 3.8900 3.9000 3.9100
3.9200 3.9300 3.9400 3.9500 3.9600 3.9700 3.9800 3.9900
4.0000 4.0100 4.0200 4.0300 4.0400 4.0500 4.0600 4.0700
4.0800 4.0900 4.1000 4.1100 4.1200 4.1300 4.1400 4.1500
4.1600 4.1700 4.1800 4.1900 4.2000 4.2100 4.2200 4.2300
4.2400 4.2500 4.2600 4.2700 4.2800 4.2900 4.3000 4.3100
4.3200 4.3300 4.3400 4.3500 4.3600 4.3700 4.3800 4.3900
4.4000 4.4100 4.4200 4.4300 4.4400 4.4500 4.4600 4.4700
4.4800 4.4900 4.5000 4.5100 4.5200 4.5300 4.5400 4.5500
4.5600 4.5700 4.5800 4.5900 4.6000 4.6100 4.6200 4.6300
4.6400 4.6500 4.6600 4.6700 4.6800 4.6900 4.7000 4.7100
4.7200 4.7300 4.7400 4.7500 4.7600 4.7700 4.7800 4.7900
4.8000 4.8100 4.8200 4.8300 4.8400 4.8500 4.8600 4.8700
4.8800 4.8900 4.9000 4.9100 4.9200 4.9300 4.9400 4.9500
4.9600 4.9700 4.9800 4.9900 5.0000 5.0100 5.0200 5.0300
5.0400 5.0500 5.0600 5.0700 5.0800 5.0900 5.1000 5.1100
5.1200 5.1300 5.1400 5.1500 5.1600 5.1700 5.1800 5.1900
5.2000 5.2100 5.2200 5.2300 5.2400 5.2500 5.2600 5.2700
5.2800 5.2900 5.3000 5.3100 5.3200 5.3300 5.3400 5.3500
5.3600 5.3700 5.3800 5.3900 5.4000 5.4100 5.4200 5.4300
5.4400 5.4500 5.4600 5.4700 5.4800 5.4900 5.5000 5.5100
5.5200 5.5300 5.5400 5.5500 5.5600 5.5700 5.5800 5.5900
5.6000 5.6100 5.6200 5.6300 5.6400 5.6500 5.6600 5.6700
5.6800 5.6900 5.7000 5.7100 5.7200 5.7300 5.7400 5.7500
5.7600 5.7700 5.7800 5.7900 5.8000 5.8100 5.8200 5.8300
5.8400 5.8500 5.8600 5.8700 5.8800 5.8900 5.9000 5.9100
5.9200 5.9300 5.9400 5.9500 5.9600 5.9700 5.9800 5.9900
6.0000 6.0100 6.0200 6.0300 6.0400 6.0500 6.0600 6.0700
6.0800 6.0900 6.1000 6.1100 6.1200 6.1300 6.1400 6.1500
6.1600 6.1700 6.1800 6.1900 6.2000 6.2100 6.2200 6.2300
6.2400 6.2500 6.2600 6.2700 6.2800 6.2900 6.3000 6.3100
6.3200 6.3300 6.3400 6.3500 6.3600 6.3700 6.3800 6.3900
6.4000 6.4100 6.4200 6.4300 6.4400 6.4500 6.4600 6.4700
6.4800 6.4900 6.5000 6.5100 6.5200 6.5300 6.5400 6.5500
6.5600 6.5700 6.5800 6.5900 6.6000 6.6100 6.6200 6.6300
6.6400 6.6500 6.6600 6.6700 6.6800 6.6900 6.7000 6.7100
6.7200 6.7300 6.7400 6.7500 6.7600 6.7700 6.7800 6.7900
6.8000 6.8100 6.8200 6.8300 6.8400 6.8500 6.8600 6.8700
6.8800 6.8900 6.9000 6.9100 6.9200 6.9300 6.9400 6.9500
6.9600 6.9700 6.9800 6.9900 7.0000 7.0100 7.0200 7.0300
7.0400 7.0500 7.0600 7.0700 7.0800 7.0900 7.1000 7.1100
7.1200 7.1300 7.1400 7.1500 7.1600 7.1700 7.1800 7.1900
7.2000 7.2100 7.2200 7.2300 7.2400 7.2500 7.2600 7.2700
7.2800 7.2900 7.3000 7.3100 7.3200 7.3300 7.3400 7.3500
7.3600 7.3700 7.3800 7.3900 7.4000 7.4100 7.4200 7.4300
7.4400 7.4500 7.4600 7.4700 7.4800 7.4900 7.5000 7.5100
7.5200 7.5300 7.5400 7.5500 7.5600 7.5700 7.5800 7.5900
7.6000 7.6100 7.6200 7.6300 7.6400 7.6500 7.6600 7.6700
7.6800 7.6900 7.7000 7.7100 7.7200 7.7300 7.7400 7.7500
7.7600 7.7700 7.7800 7.7900 7.8000 7.8100 7.8200 7.8300
7.8400 7.8500 7.8600 7.8700 7.8800 7.8900 7.9000 7.9100
7.9200 7.9300 7.9400 7.9500 7.9600 7.9700 7.9800 7.9900
8.0000 8.0100 8.0200 8.0300 8.0400 8.0500 8.0600 8.0700
8.0800 8.0900 8.1000 8.1100 8.1200 8.1300 8.1400 8.1500
8.1600 8.1700 8.1800 8.1900 8.2000 8.2100 8.2200 8.2300
8.2400 8.2500 8.2600 8.2700 8.2800 8.2900 8.3000 8.3100
8.3200 8.3300 8.3400 8.3500 8.3600 8.3700 8.3800 8.3900
8.4000 8.4100 8.4200 8.4300 8.4400 8.4500 8.4600 8.4700
8.4800 8.4900 8.5000 8.5100 8.5200 8.5300 8.5400 8.5500
8.5600 8.5700 8.5800 8.5900 8.6000 8.6100 8.6200 8.6300
8.6400 8.6500 8.6600 8.6700 8.6800 8.6900 8.7000 8.7100
8.7200 8.7300 8.7400 8.7500 8.7600 8.7700 8.7800 8.7900
8.8000 8.8100 8.8200 8.8300 8.8400 8.8500 8.8600 8.8700
8.8800 8.8900 8.9000 8.9100 8.9200 8.9300 8.9400 8.9500
8.9600 8.9700 8.9800 8.9900 9.0000 9.0100 9.0200 9.0300
9.0400 9.0500 9.0600 9.0700 9.0800 9.0900 9.1000 9.1100
9.1200 9.1300 9.1400 9.1500 9.1600 9.1700 9.1800 9.1900
9.2000 9.2100 9.2200 9.2300 9.2400 9.2500 9.2600 9.2700
9.2800 9.2900 9.3000 9.3100 9.3200 9.3300 9.3400 9.3500
9.3600 9.3700 9.3800 9.3900 9.4000 9.4100 9.4200 9.4300
9.4400 9.4500 9.4600 9.4700 9.4800 9.4900 9.5000 9.5100
9.5200 9.5300 9.5400 9.5500 9.5600 9.5700 9.5800 9.5900
9.6000 9.6100 9.6200 9.6300 9.6400 9.6500 9.6600 9.6700
9.6800 9.6900 9.7000 9.7100 9.7200 9.7300 9.7400 9.7500
9.7600 9.7700 9.7800 9.7900 9.8000 9.8100 9.8200 9.8300
9.8400 9.8500 9.8600 9.8700 9.8800 9.8900 9.9000 9.9100
9.9200 9.9300 9.9400 9.9500 9.9600 9.9700 9.9800 9.9900
10.0000 10.0100 10.0200 10.0300 10.0400 10.0500 10.0600 10.0700
10.0800 10.0900 10.1000 10.1100 10.1200 10.1300 10.1400 10.1500
10.1600 10.1700 10.1800 10.1900 10.2000 10.2100 10.2200 10.2300
10.2400 10.2500 10.2600 10.2700 10.2800 10.2900 10.3000 10.3100
10.3200 10.3300 10.3400 10.3500 10.3600 10.3700 10.3800 10.3900
10.4000 10.4100 10.4200 10.4300 10.4400 10.4500 10.4600 10.4700
10.4800 10.4900 10.5000 10.5100 10.5200 10.5300 10.5400 10.5500
10.5600 10.5700 10.5800 10.5900 10.6000 10.6100 10.6200 10.6300
10.6400 10.6500 10.6600 10.6700 10.6800 10.6900 10.7000 10.7100
10.7200 10.7300 10.7400 10.7500 10.7600 10.7700 10.7800 10.7900
10.8000 10.8100 10.8200 10.8300 10.8400 10.8500 10.8600 10.8700
10.8800 10.8900 10.9000 10.9100 10.9200 10.9300 10.9400 10.9500
10.9600 10.9700 10.9800 10.9900 11.0000 11.0100 11.0200 11.0300
11.0400 11.0500 11.0600 11.0700 11.0800 11.0900 11.1000 11.1100
11.1200 11.1300 11.1400 11.1500 11.1600 11.1700 11.1800 11.1900
11.2000 11.2100 11.2200 11.2300 11.2400 11.2500 11.2600 11.2700
11.2800 11.2900 11.3000 11.3100 11.3200 11.3300 11.3400 11.3500
11.3600 11.3700 11.3800 11.3900 11.4000 11.4100 11.4200 11.4300
11.4400 11.4500 11.4600 11.4700 11.4800 11.4900 11.5000 11.5100
11.5200 11.5300 11.5400 11.5500 11.5600 11.5700 11.5800 11.5900
11.6000 11.6100 11.6200 11.6300 11.6400 11.6500 11.6600 11.6700
11.6800 11.6900 11.7000 11.7100 11.7200 11.7300 11.7400 11.7500
11.7600 11.7700 11.7800 11.7900 11.8000 11.8100 11.8200 11.8300
11.8400 11.8500 11.8600 11.8700 11.8800 11.8900 11.9000 11.9100
11.9200 11.9300 11.9400 11.9500 11.9600 11.9700</PP_R><PP_RAB type="real" size="1198" columns="8">
0.0100 0.0100 0.0100 0.0100 0.0100 0.0100 0.0100 0.0100
0.0100 0.0100 0.0100 0.0100 0.0100 0.0100 0.0100 0.0100
0.0100 0.0100 0.0100 0.0100 0.0100 0.0100 0.0100 0.0100
0.0100 0.0100 0.0100 0.0100 0.0100 0.0100 0.0100 0.0100
0.0100 0.0100 0.0100 0.0100 0.0100 0.0100 0.0100 0.0100
0.0100 0.0100 0.0100 0.0100 0.0100 0.0100 0.0100 0.0100
0.0100 0.0100 0.0100 0.0100 0.0100 0.0100 0.0100 0.0100
0.0100 0.0100 0.0100 0.0100 0.0100 0.0100 0.0100 0.0100
0.0100 0.0100 0.0100 0.0100 0.0100 0.0100 0.0100 0.0100
0.0100 0.0100 0.0100 0.0100 0.0100 0.0100 0.0100 0.0100
0.0100 0.0100 0.0100 0.0100 0.0100 0.0100 0.0100 0.0100
0.0100 0.0100 0.0100 0.0100 0.0100 0.0100 0.0100 0.0100
0.0100 0.0100 0.0100 0.0100 0.0100 0.0100 0.0100 0.0100
0.0100 0.0100 0.0100 0.0100 0.0100 0.0100 0.0100 0.0100
0.0100 0.0100 0.0100 0.0100 0.0100 0.0100 0.0100 0.0100
0.0100 0.0100 0.0100 0.0100 0.0100 0.0100 0.0100 0.0100
0.0100 0.0100 0.0100 0.0100 0.0100 0.0100 0.0100 0.0100
0.0100 0.0100 0.0100 0.0100 0.0100 0.0100 0.0100 0.0100
0.0100 0.0100 0.0100 0.0100 0.0100 0.0100 0.0100 0.0100
0.0100 0.0100 0.0100 0.0100 0.0100 0.0100 0.0100 0.0100
0.0100 0.0100 0.0100 0.0100 0.0100 0.0100 0.0100 0.0100
0.0100 0.0100 0.0100 0.0100 0.0100 0.0100 0.0100 0.0100
0.0100 0.0100 0.0100 0.0100 0.0100 0.0100 0.0100 0.0100
0.0100 0.0100 0.0100 0.0100 0.0100 0.0100 0.0100 0.0100
0.0100 0.0100 0.0100 0.0100 0.0100 0.0100 0.0100 0.0100
0.0100 0.0100 0.0100 0.0100 0.0100 0.0100 0.0100 0.0100
0.0100 0.0100 0.0100 0.0100 0.0100 0.0100 0.0100 0.0100
0.0100 0.0100 0.0100 0.0100 0.0100 0.0100 0.0100 0.0100
0.0100 0.0100 0.0100 0.0100 0.0100 0.0100 0.0100 0.0100
0.0100 0.0100 0.0100 0.0100 0.0100 0.0100 0.0100 0.0100
0.0100 0.0100 0.0100 0.0100 0.0100 0.0100 0.0100 0.0100
0.0100 0.0100 0.0100 0.0100 0.0100 0.0100 0.0100 0.0100
0.0100 0.0100 0.0100 0.0100 0.0100 0.0100 0.0100 0.0100
0.0100 0.0100 0.0100 0.0100 0.0100 0.0100 0.0100 0.0100
0.0100 0.0100 0.0100 0.0100 0.0100 0.0100 0.0100 0.0100
0.0100 0.0100 0.0100 0.0100 0.0100 0.0100 0.0100 0.0100
0.0100 0.0100 0.0100 0.0100 0.0100 0.0100 0.0100 0.0100
0.0100 0.0100 0.0100 0.0100 0.0100 0.0100 0.0100 0.0100
0.0100 0.0100 0.0100 0.0100 0.0100 0.0100 0.0100 0.0100
0.0100 0.0100 0.0100 0.0100 0.0100 0.0100 0.0100 0.0100
0.0100 0.0100 0.0100 0.0100 0.0100 0.0100 0.0100 0.0100
0.0100 0.0100 0.0100 0.0100 0.0100 0.0100 0.0100 0.0100
0.0100 0.0100 0.0100 0.0100 0.0100 0.0100 0.0100 0.0100
0.0100 0.0100 0.0100 0.0100 0.0100 0.0100 0.0100 0.0100
0.0100 0.0100 0.0100 0.0100 0.0100 0.0100 0.0100 0.0100
0.0100 0.0100 0.0100 0.0100 0.0100 0.0100 0.0100 0.0100
0.0100 0.0100 0.0100 0.0100 0.0100 0.0100 0.0100 0.0100
0.0100 0.0100 0.0100 0.0100 0.0100 0.0100 0.0100 0.0100
0.0100 0.0100 0.0100 0.0100 0.0100 0.0100 0.0100 0.0100
0.0100 0.0100 0.0100 0.0100 0.0100 0.0100 0.0100 0.0100
0.0100 0.0100 0.0100 0.0100 0.0100 0.0100 0.0100 0.0100
0.0100 0.0100 0.0100 0.0100 0.0100 0.0100 0.0100 0.0100
0.0100 0.0100 0.0100 0.0100 0.0100 0.0100 0.0100 0.0100
0.0100 0.0100 0.0100 0.0100 0.0100 0.0100 0.0100 0.0100
0.0100 0.0100 0.0100 0.0100 0.0100 0.0100 0.0100 0.0100
0.0100 0.0100 0.0100 0.0100 0.0100 0.0100 0.0100 0.0100
0.0100 0.0100 0.0100 0.0100 0.0100 0.0100 0.0100 0.0100
0.0100 0.0100 0.0100 0.0100 0.0100 0.0100 0.0100 0.0100
0.0100 0.0100 0.0100 0.0100 0.0100 0.0100 0.0100 0.0100
0.0100 0.0100 0.0100 0.0100 0.0100 0.0100 0.0100 0.0100
0.0100 0.0100 0.0100 0.0100 0.0100 0.0100 0.0100 0.0100
0.0100 0.0100 0.0100 0.0100 0.0100 0.0100 0.0100 0.0100
0.0100 0.0100 0.0100 0.0100 0.0100 0.0100 0.0100 0.0100
0.0100 0.0100 0.0100 0.0100 0.0100 0.0100 0.0100 0.0100
0.0100 0.0100 0.0100 0.0100 0.0100 0.0100 0.0100 0.0100
0.0100 0.0100 0.0100 0.0100 0.0100 0.0100 0.0100 0.0100
0.0100 0.0100 0.0100 0.0100 0.0100 0.0100 0.0100 0.0100
0.0100 0.0100 0.0100 0.0100 0.0100 0.0100 0.0100 0.0100
0.0100 0.0100 0.0100 0.0100 0.0100 0.0100 0.0100 0.0100
0.0100 0.0100 0.0100 0.0100 0.0100 0.0100 0.0100 0.0100
0.0100 0.0100 0.0100 0.0100 0.0100 0.0100 0.0100 0.0100
0.0100 0.0100 0.0100 0.0100 0.0100 0.0100 0.0100 0.0100
0.0100 0.0100 0.0100 0.0100 0.0100 0.0100 0.0100 0.0100
0.0100 0.0100 0.0100 0.0100 0.0100 0.0100 0.0100 0.0100
0.0100 0.0100 0.0100 0.0100 0.0100 0.0100 0.0100 0.0100
0.0100 0.0100 0.0100 0.0100 0.0100 0.0100 0.0100 0.0100
0.0100 0.0100 0.0100 0.0100 0.0100 0.0100 0.0100 0.0100
0.0100 0.0100 0.0100 0.0100 0.0100 0.0100 0.0100 0.0100
0.0100 0.0100 0.0100 0.0100 0.0100 0.0100 0.0100 0.0100
0.0100 0.0100 0.0100 0.0100 0.0100 0.0100 0.0100 0.0100
0.0100 0.0100 0.0100 0.0100 0.0100 0.0100 0.0100 0.0100
0.0100 0.0100 0.0100 0.0100 0.0100 0.0100 0.0100 0.0100
0.0100 0.0100 0.0100 0.0100 0.0100 0.0100 0.0100 0.0100
0.0100 0.0100 0.0100 0.0100 0.0100 0.0100 0.0100 0.0100
0.0100 0.0100 0.0100 0.0100 0.0100 0.0100 0.0100 0.0100
0.0100 0.0100 0.0100 0.0100 0.0100 0.0100 0.0100 0.0100
0.0100 0.0100 0.0100 0.0100 0.0100 0.0100 0.0100 0.0100
0.0100 0.0100 0.0100 0.0100 0.0100 0.0100 0.0100 0.0100
0.0100 0.0100 0.0100 0.0100 0.0100 0.0100 0.0100 0.0100
0.0100 0.0100 0.0100 0.0100 0.0100 0.0100 0.0100 0.0100
0.0100 0.0100 0.0100 0.0100 0.0100 0.0100 0.0100 0.0100
0.0100 0.0100 0.0100 0.0100 0.0100 0.0100 0.0100 0.0100
0.0100 0.0100 0.0100 0.0100 0.0100 0.0100 0.0100 0.0100
0.0100 0.0100 0.0100 0.0100 0.0100 0.0100 0.0100 0.0100
0.0100 0.0100 0.0100 0.0100 0.0100 0.0100 0.0100 0.0100
0.0100 0.0100 0.0100 0.0100 0.0100 0.0100 0.0100 0.0100
0.0100 0.0100 0.0100 0.0100 0.0100 0.0100 0.0100 0.0100
0.0100 0.0100 0.0100 0.0100 0.0100 0.0100 0.0100 0.0100
0.0100 0.0100 0.0100 0.0100 0.0100 0.0100 0.0100 0.0100
0.0100 0.0100 0.0100 0.0100 0.0100 0.0100 0.0100 0.0100
0.0100 0.0100 0.0100 0.0100 0.0100 0.0100 0.0100 0.0100
0.0100 0.0100 0.0100 0.0100 0.0100 0.0100 0.0100 0.0100
0.0100 0.0100 0.0100 0.0100 0.0100 0.0100 0.0100 0.0100
0.0100 0.0100 0.0100 0.0100 0.0100 0.0100 0.0100 0.0100
0.0100 0.0100 0.0100 0.0100 0.0100 0.0100 0.0100 0.0100
0.0100 0.0100 0.0100 0.0100 0.0100 0.0100 0.0100 0.0100
0.0100 0.0100 0.0100 0.0100 0.0100 0.0100 0.0100 0.0100
0.0100 0.0100 0.0100 0.0100 0.0100 0.0100 0.0100 0.0100
0.0100 0.0100 0.0100 0.0100 0.0100 0.0100 0.0100 0.0100
0.0100 0.0100 0.0100 0.0100 0.0100 0.0100 0.0100 0.0100
0.0100 0.0100 0.0100 0.0100 0.0100 0.0100 0.0100 0.0100
0.0100 0.0100 0.0100 0.0100 0.0100 0.0100 0.0100 0.0100
0.0100 0.0100 0.0100 0.0100 0.0100 0.0100 0.0100 0.0100
0.0100 0.0100 0.0100 0.0100 0.0100 0.0100 0.0100 0.0100
0.0100 0.0100 0.0100 0.0100 0.0100 0.0100 0.0100 0.0100
0.0100 0.0100 0.0100 0.0100 0.0100 0.0100 0.0100 0.0100
0.0100 0.0100 0.0100 0.0100 0.0100 0.0100 0.0100 0.0100
0.0100 0.0100 0.0100 0.0100 0.0100 0.0100 0.0100 0.0100
0.0100 0.0100 0.0100 0.0100 0.0100 0.0100 0.0100 0.0100
0.0100 0.0100 0.0100 0.0100 0.0100 0.0100 0.0100 0.0100
0.0100 0.0100 0.0100 0.0100 0.0100 0.0100 0.0100 0.0100
0.0100 0.0100 0.0100 0.0100 0.0100 0.0100 0.0100 0.0100
0.0100 0.0100 0.0100 0.0100 0.0100 0.0100 0.0100 0.0100
0.0100 0.0100 0.0100 0.0100 0.0100 0.0100 0.0100 0.0100
0.0100 0.0100 0.0100 0.0100 0.0100 0.0100 0.0100 0.0100
0.0100 0.0100 0.0100 0.0100 0.0100 0.0100 0.0100 0.0100
0.0100 0.0100 0.0100 0.0100 0.0100 0.0100 0.0100 0.0100
0.0100 0.0100 0.0100 0.0100 0.0100 0.0100 0.0100 0.0100
0.0100 0.0100 0.0100 0.0100 0.0100 0.0100 0.0100 0.0100
0.0100 0.0100 0.0100 0.0100 0.0100 0.0100 0.0100 0.0100
0.0100 0.0100 0.0100 0.0100 0.0100 0.0100 0.0100 0.0100
0.0100 0.0100 0.0100 0.0100 0.0100 0.0100 0.0100 0.0100
0.0100 0.0100 0.0100 0.0100 0.0100 0.0100 0.0100 0.0100
0.0100 0.0100 0.0100 0.0100 0.0100 0.0100 0.0100 0.0100
0.0100 0.0100 0.0100 0.0100 0.0100 0.0100 0.0100 0.0100
0.0100 0.0100 0.0100 0.0100 0.0100 0.0100 0.0100 0.0100
0.0100 0.0100 0.0100 0.0100 0.0100 0.0100 0.0100 0.0100
0.0100 0.0100 0.0100 0.0100 0.0100 0.0100 0.0100 0.0100
0.0100 0.0100 0.0100 0.0100 0.0100 0.0100 0.0100 0.0100
0.0100 0.0100 0.0100 0.0100 0.0100 0.0100 0.0100 0.0100
0.0100 0.0100 0.0100 0.0100 0.0100 0.0100 0.0100 0.0100
0.0100 0.0100 0.0100 0.0100 0.0100 0.0100 0.0100 0.0100
0.0100 0.0100 0.0100 0.0100 0.0100 0.0100 0.0100 0.0100
0.0100 0.0100 0.0100 0.0100 0.0100 0.0100 0.0100 0.0100
0.0100 0.0100 0.0100 0.0100 0.0100 0.0100 0.0100 0.0100
0.0100 0.0100 0.0100 0.0100 0.0100 0.0100 0.0100 0.0100
0.0100 0.0100 0.0100 0.0100 0.0100 0.0100 0.0100 0.0100
0.0100 0.0100 0.0100 0.0100 0.0100 0.0100 0.0100 0.0100
0.0100 0.0100 0.0100 0.0100 0.0100 0.0100 0.0100 0.0100
0.0100 0.0100 0.0100 0.0100 0.0100 0.0100</PP_RAB></PP_MESH><PP_LOCAL type="real" size="1198" columns="4">
-4.0570876636E+01 -4.0570492073E+01 -4.0569337906E+01 -4.0567412722E+01
-4.0564714060E+01 -4.0561238280E+01 -4.0556980365E+01 -4.0551933685E+01
-4.0546089713E+01 -4.0539437714E+01 -4.0531964406E+01 -4.0523653599E+01
-4.0514485829E+01 -4.0504437990E+01 -4.0493482977E+01 -4.0481589341E+01
-4.0468720975E+01 -4.0454836832E+01 -4.0439890682E+01 -4.0423830916E+01
-4.0406600413E+01 -4.0388136451E+01 -4.0368370696E+01 -4.0347229247E+01
-4.0324632755E+01 -4.0300496612E+01 -4.0274731208E+01 -4.0247242257E+01
-4.0217931189E+01 -4.0186695608E+01 -4.0153429796E+01 -4.0118025277E+01
-4.0080371418E+01 -4.0040356064E+01 -3.9997866194E+01 -3.9952788591E+01
-3.9905010516E+01 -3.9854420369E+01 -3.9800908338E+01 -3.9744367013E+01
-3.9684691980E+01 -3.9621782358E+01 -3.9555541311E+01 -3.9485876503E+01
-3.9412700511E+01 -3.9335931205E+01 -3.9255492075E+01 -3.9171312537E+01
-3.9083328203E+01 -3.8991481128E+01 -3.8895720045E+01 -3.8796000579E+01
-3.8692285462E+01 -3.8584544733E+01 -3.8472755943E+01 -3.8356904353E+01
-3.8236983131E+01 -3.8112993548E+01 -3.7984945161E+01 -3.7852855995E+01
-3.7716752699E+01 -3.7576670689E+01 -3.7432654260E+01 -3.7284756664E+01
-3.7133040138E+01 -3.6977575896E+01 -3.6818444045E+01 -3.6655733452E+01
-3.6489541535E+01 -3.6319973984E+01 -3.6147144406E+01 -3.5971173904E+01
-3.5792190578E+01 -3.5610328973E+01 -3.5425729461E+01 -3.5238537580E+01
-3.5048903339E+01 -3.4856980490E+01 -3.4662925788E+01 -3.4466898247E+01
-3.4269058396E+01 -3.4069567553E+01 -3.3868587120E+01 -3.3666277896E+01
-3.3462799428E+01 -3.3258309394E+01 -3.3052963008E+01 -3.2846912466E+01
-3.2640306421E+01 -3.2433289480E+01 -3.2226001729E+01 -3.2018578274E+01
-3.1811148808E+01 -3.1603837187E+01 -3.1396761020E+01 -3.1190031285E+01
-3.0983751950E+01 -3.0778019630E+01 -3.0572923268E+01 -3.0368543866E+01
-3.0164954266E+01 -2.9962219012E+01 -2.9760394304E+01 -2.9559528059E+01
-2.9359660117E+01 -2.9160822589E+01 -2.8963040377E+01 -2.8766331869E+01
-2.8570709805E+01 -2.8376182305E+01 -2.8182754039E+01 -2.7990427497E+01
-2.7799204305E+01 -2.7609086535E+01 -2.7420077923E+01 -2.7232184928E+01
-2.7045417541E+01 -2.6859789771E+01 -2.6675319740E+01 -2.6492029334E+01
-2.6309943368E+01 -2.6129088280E+01 -2.5949490369E+01 -2.5771173670E+01
-2.5594157553E+01 -2.5418454260E+01 -2.5244066543E+01 -2.5070985687E+01
-2.4899190170E+01 -2.4728645193E+01 -2.4559303372E+01 -2.4391106621E+01
-2.4223989329E+01 -2.4057882707E+01 -2.3892719940E+01 -2.3728441862E+01
-2.3565002487E+01 -2.3402374011E+01 -2.3240550543E+01 -2.3079550350E+01
-2.2919416273E+01 -2.2760214186E+01 -2.2602029934E+01 -2.2444964656E+01
-2.2289129477E+01 -2.2134639536E+01 -2.1981608720E+01 -2.1830144982E+01
-2.1680345045E+01 -2.1532290260E+01 -2.1386039548E+01 -2.1241628360E+01
-2.1099072616E+01 -2.0958374863E+01 -2.0819535302E+01 -2.0682550415E+01
-2.0547411664E+01 -2.0414103671E+01 -2.0282601662E+01 -2.0152875923E+01
-2.0024894085E+01 -1.9898621921E+01 -1.9774024505E+01 -1.9651066144E+01
-1.9529710816E+01 -1.9409923010E+01 -1.9291668018E+01 -1.9174912033E+01
-1.9059622304E+01 -1.8945767233E+01 -1.8833316408E+01 -1.8722240599E+01
-1.8612511736E+01 -1.8504102877E+01 -1.8396988142E+01 -1.8291142676E+01
-1.8186542566E+01 -1.8083164696E+01 -1.7980986738E+01 -1.7879987188E+01
-1.7780145406E+01 -1.7681442030E+01 -1.7583859248E+01 -1.7487380309E+01
-1.7391989386E+01 -1.7297670988E+01 -1.7204409144E+01 -1.7112187278E+01
-1.7020988387E+01 -1.6930794574E+01 -1.6841586245E+01 -1.6753342159E+01
-1.6666040493E+01 -1.6579659051E+01 -1.6494176919E+01 -1.6409577338E+01
-1.6325845954E+01 -1.6242970090E+01 -1.6160938032E+01 -1.6079738105E+01
-1.5999357180E+01 -1.5919781956E+01 -1.5840999671E+01 -1.5762997760E+01
-1.5685763997E+01 -1.5609286563E+01 -1.5533553919E+01 -1.5458554507E+01
-1.5384276997E+01 -1.5310710331E+01 -1.5237843729E+01 -1.5165666654E+01
-1.5094168798E+01 -1.5023340102E+01 -1.4953170755E+01 -1.4883651197E+01
-1.4814772106E+01 -1.4746524403E+01 -1.4678899244E+01 -1.4611888011E+01
-1.4545482313E+01 -1.4479673970E+01 -1.4414455013E+01 -1.4349817666E+01
-1.4285754345E+01 -1.4222257643E+01 -1.4159320324E+01 -1.4096935307E+01
-1.4035095662E+01 -1.3973794598E+01 -1.3913025452E+01 -1.3852781678E+01
-1.3793056844E+01 -1.3733844618E+01 -1.3675138761E+01 -1.3616933122E+01
-1.3559221630E+01 -1.3501998286E+01 -1.3445257163E+01 -1.3388992398E+01
-1.3333198188E+01 -1.3277868790E+01 -1.3222998518E+01 -1.3168581743E+01
-1.3114612887E+01 -1.3061086432E+01 -1.3007996913E+01 -1.2955338924E+01
-1.2903107118E+01 -1.2851296208E+01 -1.2799900971E+01 -1.2748916250E+01
-1.2698336954E+01 -1.2648158072E+01 -1.2598374661E+01 -1.2548981869E+01
-1.2499974879E+01 -1.2451348969E+01 -1.2403099505E+01 -1.2355221998E+01
-1.2307712054E+01 -1.2260565280E+01 -1.2213777551E+01 -1.2167344735E+01
-1.2121262818E+01 -1.2075527197E+01 -1.2030133122E+01 -1.1985076006E+01
-1.1940351804E+01 -1.1895957133E+01 -1.1851888849E+01 -1.1808144261E+01
-1.1764721523E+01 -1.1721618563E+01 -1.1678833474E+01 -1.1636362271E+01
-1.1594201102E+01 -1.1552345688E+01 -1.1510792127E+01 -1.1469536590E+01
-1.1428575270E+01 -1.1387904806E+01 -1.1347522334E+01 -1.1307425068E+01
-1.1267610425E+01 -1.1228075260E+01 -1.1188816621E+01 -1.1149831506E+01
-1.1111117076E+01 -1.1072670545E+01 -1.1034489145E+01 -1.0996570153E+01
-1.0958910866E+01 -1.0921508626E+01 -1.0884360812E+01 -1.0847464836E+01
-1.0810818146E+01 -1.0774418225E+01 -1.0738262589E+01 -1.0702348788E+01
-1.0666674403E+01 -1.0631237048E+01 -1.0596034371E+01 -1.0561064046E+01
-1.0526323782E+01 -1.0491811316E+01 -1.0457524416E+01 -1.0423460876E+01
-1.0389618523E+01 -1.0355995208E+01 -1.0322588813E+01 -1.0289397244E+01
-1.0256418438E+01 -1.0223650354E+01 -1.0191090980E+01 -1.0158738328E+01
-1.0126590436E+01 -1.0094645366E+01 -1.0062901204E+01 -1.0031356063E+01
-1.0000008076E+01 -9.9688554001E+00 -9.9378962166E+00 -9.9071287282E+00
-9.8765511602E+00 -9.8461617596E+00 -9.8159587948E+00 -9.7859405556E+00
-9.7561053525E+00 -9.7264515166E+00 -9.6969773993E+00 -9.6676813717E+00
-9.6385618247E+00 -9.6096171684E+00 -9.5808458322E+00 -9.5522462638E+00
-9.5238169299E+00 -9.4955563149E+00 -9.4674629215E+00 -9.4395352698E+00
-9.4117718976E+00 -9.3841713596E+00 -9.3567322274E+00 -9.3294530895E+00
-9.3023325505E+00 -9.2753692315E+00 -9.2485617692E+00 -9.2219088162E+00
-9.1954090407E+00 -9.1690611259E+00 -9.1428637701E+00 -9.1168156867E+00
-9.0909156034E+00 -9.0651622624E+00 -9.0395544203E+00 -9.0140908474E+00
-8.9887703281E+00 -8.9635916602E+00 -8.9385536551E+00 -8.9136551372E+00
-8.8888949444E+00 -8.8642719270E+00 -8.8397849482E+00 -8.8154328838E+00
-8.7912146219E+00 -8.7671290628E+00 -8.7431751187E+00 -8.7193517137E+00
-8.6956577837E+00 -8.6720922762E+00 -8.6486541497E+00 -8.6253423743E+00
-8.6021559311E+00 -8.5790938120E+00 -8.5561550198E+00 -8.5333385678E+00
-8.5106434800E+00 -8.4880687907E+00 -8.4656135441E+00 -8.4432767951E+00
-8.4210576079E+00 -8.3989550570E+00 -8.3769682263E+00 -8.3550962095E+00
-8.3333381095E+00 -8.3116930387E+00 -8.2901601187E+00 -8.2687384801E+00
-8.2474272623E+00 -8.2262256140E+00 -8.2051326922E+00 -8.1841476627E+00
-8.1632696998E+00 -8.1424979863E+00 -8.1218317131E+00 -8.1012700794E+00
-8.0808122924E+00 -8.0604575676E+00 -8.0402051279E+00 -8.0200542044E+00
-8.0000040357E+00 -7.9800538680E+00 -7.9602029550E+00 -7.9404505579E+00
-7.9207959452E+00 -7.9012383924E+00 -7.8817771824E+00 -7.8624116051E+00
-7.8431409573E+00 -7.8239645427E+00 -7.8048816717E+00 -7.7858916617E+00
-7.7669938363E+00 -7.7481875260E+00 -7.7294720677E+00 -7.7108468045E+00
-7.6923110861E+00 -7.6738642682E+00 -7.6555057128E+00 -7.6372347880E+00
-7.6190508677E+00 -7.6009533321E+00 -7.5829415670E+00 -7.5650149642E+00
-7.5471729209E+00 -7.5294148405E+00 -7.5117401315E+00 -7.4941482083E+00
-7.4766384906E+00 -7.4592104034E+00 -7.4418633774E+00 -7.4245968482E+00
-7.4074102568E+00 -7.3903030495E+00 -7.3732746774E+00 -7.3563245970E+00
-7.3394522694E+00 -7.3226571609E+00 -7.3059387427E+00 -7.2892964905E+00
-7.2727298852E+00 -7.2562384122E+00 -7.2398215614E+00 -7.2234788275E+00
-7.2072097098E+00 -7.1910137119E+00 -7.1748903420E+00 -7.1588391128E+00
-7.1428595410E+00 -7.1269511479E+00 -7.1111134590E+00 -7.0953460040E+00
-7.0796483167E+00 -7.0640199351E+00 -7.0484604012E+00 -7.0329692611E+00
-7.0175460648E+00 -7.0021903663E+00 -6.9869017235E+00 -6.9716796981E+00
-6.9565238555E+00 -6.9414337653E+00 -6.9264090003E+00 -6.9114491373E+00
-6.8965537567E+00 -6.8817224424E+00 -6.8669547821E+00 -6.8522503668E+00
-6.8376087911E+00 -6.8230296529E+00 -6.8085125539E+00 -6.7940570988E+00
-6.7796628959E+00 -6.7653295565E+00 -6.7510566956E+00 -6.7368439312E+00
-6.7226908844E+00 -6.7085971797E+00 -6.6945624447E+00 -6.6805863101E+00
-6.6666684095E+00 -6.6528083798E+00 -6.6390058607E+00 -6.6252604952E+00
-6.6115719288E+00 -6.5979398103E+00 -6.5843637913E+00 -6.5708435261E+00
-6.5573786719E+00 -6.5439688890E+00 -6.5306138400E+00 -6.5173131905E+00
-6.5040666089E+00 -6.4908737662E+00 -6.4777343359E+00 -6.4646479943E+00
-6.4516144204E+00 -6.4386332957E+00 -6.4257043042E+00 -6.4128271324E+00
-6.4000014694E+00 -6.3872270068E+00 -6.3745034387E+00 -6.3618304614E+00
-6.3492077738E+00 -6.3366350772E+00 -6.3241120752E+00 -6.3116384738E+00
-6.2992139811E+00 -6.2868383078E+00 -6.2745111667E+00 -6.2622322728E+00
-6.2500013435E+00 -6.2378180982E+00 -6.2256822586E+00 -6.2135935487E+00
-6.2015516943E+00 -6.1895564236E+00 -6.1776074668E+00 -6.1657045562E+00
-6.1538474261E+00 -6.1420358129E+00 -6.1302694551E+00 -6.1185480930E+00
-6.1068714690E+00 -6.0952393275E+00 -6.0836514147E+00 -6.0721074790E+00
-6.0606072703E+00 -6.0491505408E+00 -6.0377370443E+00 -6.0263665366E+00
-6.0150387752E+00 -6.0037535196E+00 -5.9925105310E+00 -5.9813095722E+00
-5.9701504082E+00 -5.9590328054E+00 -5.9479565320E+00 -5.9369213581E+00
-5.9259270552E+00 -5.9149733967E+00 -5.9040601578E+00 -5.8931871150E+00
-5.8823540466E+00 -5.8715607327E+00 -5.8608069548E+00 -5.8500924961E+00
-5.8394171413E+00 -5.8287806768E+00 -5.8181828903E+00 -5.8076235713E+00
-5.7971025109E+00 -5.7866195013E+00 -5.7761743365E+00 -5.7657668120E+00
-5.7553967247E+00 -5.7450638730E+00 -5.7347680566E+00 -5.7245090768E+00
-5.7142867362E+00 -5.7041008390E+00 -5.6939511906E+00 -5.6838375977E+00
-5.6737598687E+00 -5.6637178132E+00 -5.6537112419E+00 -5.6437399672E+00
-5.6338038027E+00 -5.6239025632E+00 -5.6140360650E+00 -5.6042041254E+00
-5.5944065632E+00 -5.5846431985E+00 -5.5749138526E+00 -5.5652183478E+00
-5.5555565080E+00 -5.5459281582E+00 -5.5363331244E+00 -5.5267712342E+00
-5.5172423160E+00 -5.5077461996E+00 -5.4982827159E+00 -5.4888516970E+00
-5.4794529761E+00 -5.4700863877E+00 -5.4607517671E+00 -5.4514489510E+00
-5.4421777772E+00 -5.4329380845E+00 -5.4237297127E+00 -5.4145525030E+00
-5.4054062974E+00 -5.3962909390E+00 -5.3872062721E+00 -5.3781521418E+00
-5.3691283946E+00 -5.3601348777E+00 -5.3511714394E+00 -5.3422379292E+00
-5.3333341973E+00 -5.3244600952E+00 -5.3156154751E+00 -5.3068001904E+00
-5.2980140954E+00 -5.2892570454E+00 -5.2805288965E+00 -5.2718295060E+00
-5.2631587318E+00 -5.2545164331E+00 -5.2459024699E+00 -5.2373167028E+00